# vtk DataFile Version 2.0
track0
ASCII
DATASET POLYDATA
POINTS 20002 float
1.11022e-18 0.5 1.11022e-18
0.391304 0.5 1.11022e-18
0.391043 0.499389 1.11022e-18
0.390786 0.498776 1.11022e-18
0.390531 0.498162 1.11022e-18
0.390279 0.497547 1.11022e-18
0.39 0.496854 1.11022e-18
0.389456 0.495483 1.11022e-18
0.388926 0.494107 1.11022e-18
0.388411 0.492725 1.11022e-18
0.387909 0.491338 1.11022e-18
0.387439 0.49 1.11022e-18
0.386757 0.488 1.11022e-18
0.386099 0.485992 1.11022e-18
0.385464 0.483977 1.11022e-18
0.384852 0.481954 1.11022e-18
0.384283 0.48 1.11022e-18
0.383723 0.478 1.11022e-18
0.38318 0.475995 1.11022e-18
0.382654 0.473986 1.11022e-18
0.382144 0.471972 1.11022e-18
0.381661 0.47 1.11022e-18
0.381329 0.468596 1.11022e-18
0.381003 0.467191 1.11022e-18
0.380684 0.465784 1.11022e-18
0.380371 0.464376 1.11022e-18
0.38 0.462674 1.11022e-18
0.379886 0.462139 1.11022e-18
0.379774 0.461604 1.11022e-18
0.379662 0.461069 1.11022e-18
0.37955 0.460534 1.11022e-18
0.37944 0.46 1.11022e-18
0.379031 0.458 1.11022e-18
0.378632 0.455998 1.11022e-18
0.378242 0.453994 1.11022e-18
0.377862 0.451988 1.11022e-18
0.377495 0.45 1.11022e-18
0.377134 0.448 1.11022e-18
0.376781 0.445999 1.11022e-18
0.376435 0.443996 1.11022e-18
0.376096 0.441993 1.11022e-18
0.375767 0.44 1.11022e-18
0.375444 0.438 1.11022e-18
0.375126 0.435999 1.11022e-18
0.374814 0.433997 1.11022e-18
0.374507 0.431995 1.11022e-18
0.374208 0.43 1.11022e-18
0.373914 0.428 1.11022e-18
0.373624 0.425999 1.11022e-18
0.373339 0.423998 1.11022e-18
0.373058 0.421996 1.11022e-18
0.372783 0.42 1.11022e-18
0.372512 0.418 1.11022e-18
0.372245 0.416 1.11022e-18
0.371982 0.413999 1.11022e-18
0.371722 0.411997 1.11022e-18
0.371466 0.41 1.11022e-18
0.371215 0.408 1.11022e-18
0.370967 0.406 1.11022e-18
0.370722 0.403999 1.11022e-18
0.37048 0.401998 1.11022e-18
0.370242 0.4 1.11022e-18
0.370194 0.399587 1.11022e-18
0.370146 0.399174 1.11022e-18
0.370097 0.398761 1.11022e-18
0.370049 0.398348 1.11022e-18
0.37 0.397924 1.11022e-18
0.369816 0.396339 1.11022e-18
0.369635 0.394754 1.11022e-18
0.369455 0.393169 1.11022e-18
0.369277 0.391583 1.11022e-18
0.369101 0.39 1.11022e-18
0.368882 0.388 1.11022e-18
0.368664 0.386 1.11022e-18
0.36845 0.383999 1.11022e-18
0.368239 0.381998 1.11022e-18
0.368031 0.38 1.11022e-18
0.367825 0.378 1.11022e-18
0.367622 0.376 1.11022e-18
0.367421 0.373999 1.11022e-18
0.367224 0.371999 1.11022e-18
0.36703 0.37 1.11022e-18
0.366839 0.368 1.11022e-18
0.36665 0.366 1.11022e-18
0.366463 0.363999 1.11022e-18
0.36628 0.361999 1.11022e-18
0.3661 0.36 1.11022e-18
0.365923 0.358 1.11022e-18
0.365748 0.356 1.11022e-18
0.365576 0.353999 1.11022e-18
0.365407 0.351999 1.11022e-18
0.365241 0.35 1.11022e-18
0.365079 0.348 1.11022e-18
0.364919 0.346 1.11022e-18
0.364762 0.343999 1.11022e-18
0.364608 0.341999 1.11022e-18
0.364458 0.34 1.11022e-18
0.364311 0.338 1.11022e-18
0.364168 0.336 1.11022e-18
0.364027 0.333999 1.11022e-18
0.363889 0.331999 1.11022e-18
0.363754 0.33 1.11022e-18
0.363624 0.328 1.11022e-18
0.363497 0.326 1.11022e-18
0.363373 0.323999 1.11022e-18
0.363252 0.321999 1.11022e-18
0.363136 0.32 1.11022e-18
0.363023 0.318 1.11022e-18
0.362914 0.316 1.11022e-18
0.362808 0.313999 1.11022e-18
0.362706 0.311999 1.11022e-18
0.362608 0.31 1.11022e-18
0.362514 0.308 1.11022e-18
0.362424 0.306 1.11022e-18
0.362338 0.303999 1.11022e-18
0.362256 0.301999 1.11022e-18
0.362178 0.3 1.11022e-18
0.362105 0.298 1.11022e-18
0.362036 0.296 1.11022e-18
0.361971 0.294 1.11022e-18
0.36191 0.291999 1.11022e-18
0.361854 0.29 1.11022e-18
0.361803 0.288 1.11022e-18
0.361757 0.286 1.11022e-18
0.361715 0.284 1.11022e-18
0.361678 0.281999 1.11022e-18
0.361646 0.28 1.11022e-18
0.36162 0.278 1.11022e-18
0.361598 0.276 1.11022e-18
0.361582 0.274 1.11022e-18
0.361571 0.272 1.11022e-18
0.361566 0.27 1.11022e-18
0.361566 0.268 1.11022e-18
0.361572 0.266 1.11022e-18
0.361584 0.264 1.11022e-18
0.361602 0.262 1.11022e-18
0.361625 0.26 1.11022e-18
0.361656 0.258 1.11022e-18
0.361693 0.256 1.11022e-18
0.361736 0.254 1.11022e-18
0.361786 0.252001 1.11022e-18
0.361843 0.25 1.11022e-18
0.361907 0.248 1.11022e-18
0.361978 0.246 1.11022e-18
0.362057 0.244001 1.11022e-18
0.362144 0.242002 1.11022e-18
0.362238 0.24 1.11022e-18
0.362342 0.238 1.11022e-18
0.362453 0.236 1.11022e-18
0.362573 0.234001 1.11022e-18
0.362702 0.232003 1.11022e-18
0.362841 0.23 1.11022e-18
0.362989 0.228 1.11022e-18
0.363147 0.226001 1.11022e-18
0.363316 0.224002 1.11022e-18
0.363495 0.222005 1.11022e-18
0.363686 0.22 1.11022e-18
0.363888 0.218 1.11022e-18
0.364103 0.216001 1.11022e-18
0.364329 0.214004 1.11022e-18
0.364568 0.212008 1.11022e-18
0.364823 0.21 1.11022e-18
0.365092 0.208 1.11022e-18
0.365376 0.206002 1.11022e-18
0.365674 0.204006 1.11022e-18
0.365989 0.202013 1.11022e-18
0.366325 0.2 1.11022e-18
0.366677 0.198 1.11022e-18
0.367049 0.196003 1.11022e-18
0.36744 0.194011 1.11022e-18
0.367852 0.192022 1.11022e-18
0.368294 0.19 1.11022e-18
0.368635 0.188526 1.11022e-18
0.36899 0.187056 1.11022e-18
0.369359 0.185589 1.11022e-18
0.369742 0.184126 1.11022e-18
0.37 0.183185 1.11022e-18
0.370179 0.182548 1.11022e-18
0.370361 0.181912 1.11022e-18
0.370546 0.181276 1.11022e-18
0.370735 0.180642 1.11022e-18
0.370929 0.18 1.11022e-18
0.371546 0.178 1.11022e-18
0.372196 0.176011 1.11022e-18
0.372883 0.174034 1.11022e-18
0.373608 0.17207 1.11022e-18
0.374421 0.17 1.11022e-18
0.375261 0.168 1.11022e-18
0.376151 0.166022 1.11022e-18
0.377094 0.164068 1.11022e-18
0.378093 0.162142 1.11022e-18
0.379288 0.16 1.11022e-18
0.37943 0.159766 1.11022e-18
0.379574 0.159533 1.11022e-18
0.379718 0.1593 1.11022e-18
0.379864 0.159068 1.11022e-18
0.38 0.158853 1.11022e-18
0.381133 0.157083 1.11022e-18
0.382327 0.155352 1.11022e-18
0.383584 0.153667 1.11022e-18
0.384907 0.152033 1.11022e-18
0.386695 0.15 1.11022e-18
0.387356 0.149329 1.11022e-18
0.388031 0.148671 1.11022e-18
0.38872 0.148029 1.11022e-18
0.389424 0.147402 1.11022e-18
0.39 0.146909 1.11022e-18
0.391679 0.145528 1.11022e-18
0.393423 0.144229 1.11022e-18
0.395231 0.143022 1.11022e-18
0.397097 0.141907 1.11022e-18
0.4 0.140367 1.11022e-18
0.400169 0.140294 1.11022e-18
0.400339 0.140221 1.11022e-18
0.400509 0.140149 1.11022e-18
0.40068 0.140078 1.11022e-18
0.400867 0.14 1.11022e-18
0.402694 0.139252 1.11022e-18
0.40455 0.138581 1.11022e-18
0.406433 0.137989 1.11022e-18
0.408339 0.137476 1.11022e-18
0.41 0.1371 1.11022e-18
0.412 0.136715 1.11022e-18
0.414013 0.136403 1.11022e-18
0.416035 0.136163 1.11022e-18
0.418065 0.135993 1.11022e-18
0.42 0.135893 1.11022e-18
0.422 0.135848 1.11022e-18
0.424 0.13586 1.11022e-18
0.426 0.135928 1.11022e-18
0.427997 0.136049 1.11022e-18
0.43 0.13622 1.11022e-18
0.432 0.136439 1.11022e-18
0.433994 0.136705 1.11022e-18
0.435982 0.137015 1.11022e-18
0.437963 0.137369 1.11022e-18
0.44 0.137777 1.11022e-18
0.442 0.138218 1.11022e-18
0.443991 0.138699 1.11022e-18
0.445972 0.139218 1.11022e-18
0.447944 0.139773 1.11022e-18
0.448696 0.14 1.11022e-18
0.448957 0.14008 1.11022e-18
0.449218 0.140161 1.11022e-18
0.449478 0.140243 1.11022e-18
0.449738 0.140325 1.11022e-18
0.45 0.140409 1.11022e-18
0.452 0.141051 1.11022e-18
0.453988 0.141728 1.11022e-18
0.455965 0.142439 1.11022e-18
0.45793 0.143182 1.11022e-18
0.46 0.144002 1.11022e-18
0.462 0.144833 1.11022e-18
0.463986 0.145697 1.11022e-18
0.465959 0.146592 1.11022e-18
0.467917 0.147516 1.11022e-18
0.47 0.148537 1.11022e-18
0.470575 0.14883 1.11022e-18
0.471149 0.149125 1.11022e-18
0.471721 0.149422 1.11022e-18
0.472293 0.149722 1.11022e-18
0.472818 0.15 1.11022e-18
0.474254 0.150768 1.11022e-18
0.475682 0.151552 1.11022e-18
0.477102 0.15235 1.11022e-18
0.478514 0.153163 1.11022e-18
0.48 0.15404 1.11022e-18
0.481974 0.155232 1.11022e-18
0.48393 0.156452 1.11022e-18
0.485869 0.1577 1.11022e-18
0.48779 0.158974 1.11022e-18
0.489294 0.16 1.11022e-18
0.489435 0.160098 1.11022e-18
0.489576 0.160197 1.11022e-18
0.489717 0.160296 1.11022e-18
0.489858 0.160395 1.11022e-18
0.49 0.160494 1.11022e-18
0.492 0.161905 1.11022e-18
0.493979 0.163344 1.11022e-18
0.495937 0.164812 1.11022e-18
0.497874 0.166307 1.11022e-18
0.5 0.167994 1.11022e-18
0.50049 0.168395 1.11022e-18
0.500979 0.168798 1.11022e-18
0.501467 0.169203 1.11022e-18
0.501953 0.169609 1.11022e-18
0.502418 0.17 1.11022e-18
0.503934 0.171284 1.11022e-18
0.505436 0.172586 1.11022e-18
0.506922 0.173905 1.11022e-18
0.508394 0.17524 1.11022e-18
0.51 0.17673 1.11022e-18
0.510688 0.177384 1.11022e-18
0.511374 0.178041 1.11022e-18
0.512055 0.178703 1.11022e-18
0.512733 0.179367 1.11022e-18
0.513373 0.18 1.11022e-18
0.514698 0.181325 1.11022e-18
0.516009 0.182664 1.11022e-18
0.517306 0.184017 1.11022e-18
0.518588 0.185384 1.11022e-18
0.52 0.18692 1.11022e-18
0.520554 0.187536 1.11022e-18
0.521104 0.188154 1.11022e-18
0.521652 0.188775 1.11022e-18
0.522197 0.189399 1.11022e-18
0.522719 0.19 1.11022e-18
0.524175 0.191695 1.11022e-18
0.525609 0.193408 1.11022e-18
0.527022 0.195139 1.11022e-18
0.528414 0.196887 1.11022e-18
0.53 0.19893 1.11022e-18
0.530161 0.199144 1.11022e-18
0.530323 0.199358 1.11022e-18
0.530483 0.199573 1.11022e-18
0.530644 0.199787 1.11022e-18
0.530803 0.2 1.11022e-18
0.53229 0.202 1.11022e-18
0.533749 0.20402 1.11022e-18
0.535181 0.20606 1.11022e-18
0.536586 0.208119 1.11022e-18
0.537834 0.21 1.11022e-18
0.538267 0.210669 1.11022e-18
0.538697 0.211341 1.11022e-18
0.539125 0.212014 1.11022e-18
0.53955 0.212689 1.11022e-18
0.54 0.213411 1.11022e-18
0.540814 0.214729 1.11022e-18
0.541617 0.216053 1.11022e-18
0.54241 0.217383 1.11022e-18
0.543193 0.21872 1.11022e-18
0.543929 0.22 1.11022e-18
0.545061 0.222 1.11022e-18
0.54617 0.224013 1.11022e-18
0.547256 0.226038 1.11022e-18
0.548319 0.228075 1.11022e-18
0.549298 0.23 1.11022e-18
0.549438 0.230283 1.11022e-18
0.549578 0.230566 1.11022e-18
0.549718 0.23085 1.11022e-18
0.549857 0.231134 1.11022e-18
0.55 0.231426 1.11022e-18
0.550835 0.233141 1.11022e-18
0.551655 0.234863 1.11022e-18
0.55246 0.236592 1.11022e-18
0.553251 0.238327 1.11022e-18
0.553997 0.24 1.11022e-18
0.55487 0.242 1.11022e-18
[...]
POINT_DATA 20002
 FIELD attributes 1
U 3 20002 float
-2.2324e-19 	-8.94947e-18 	0
0.0614415 	0.143985 	0 0.0610109 	0.145025 	0 0.0605829 	0.146061 	0 0.0601573 	0.147093 	0 0.0597342 	0.148121 	0 0.0592613 	0.149272 	0 0.0583012 	0.15151 	0 0.0573539 	0.15373 	0 0.056419 	0.15593 	0 0.0554962 	0.158113 	0 0.0546205 	0.160195 	0 0.0535318 	0.16337 	0 0.0524565 	0.1665 	0 0.0512981 	0.169439 	0 0.0501585 	0.172343 	0 0.0490783 	0.175108 	0 0.0482015 	0.177978 	0 0.0473399 	0.180821 	0 0.046493 	0.183637 	0 0.0456448 	0.186407 	0 0.0447109 	0.188926 	0 0.044205 	0.190741 	0 0.0437042 	0.192544 	0 0.0432084 	0.194336 	0 0.0427175 	0.196117 	0 0.0421304 	0.198256 	0 0.0419459 	0.198902 	0 0.0417622 	0.199546 	0 0.0415791 	0.20019 	0 0.0413966 	0.200832 	0 0.0412154 	0.201471 	0 0.0406585 	0.203766 	0 0.0400517 	0.205984 	0 0.0394519 	0.208185 	0 0.038859 	0.21037 	0 0.0382782 	0.212519 	0 0.0379182 	0.214672 	0 0.0374811 	0.216729 	0 0.0369579 	0.218681 	0 0.0364393 	0.220618 	0 0.0359285 	0.22253 	0 0.035628 	0.224437 	0 0.0353309 	0.226335 	0 0.03495 	0.228135 	0 0.0344791 	0.229832 	0 0.0340134 	0.231509 	0 0.0337456 	0.233177 	0 0.03348 	0.234837 	0 0.0332167 	0.236488 	0 0.032842 	0.238019 	0 0.0324001 	0.239465 	0 0.032143 	0.240901 	0 0.0318875 	0.24233 	0 0.0316334 	0.24375 	0 0.0313808 	0.245163 	0 0.0309745 	0.246411 	0 0.0307103 	0.247621 	0 0.0304472 	0.248824 	0 0.0301851 	0.250019 	0 0.0299239 	0.251207 	0 0.029639 	0.252361 	0 0.0295801 	0.252565 	0 0.0295213 	0.252769 	0 0.0294625 	0.252973 	0 0.0294037 	0.253177 	0 0.0293433 	0.253385 	0 0.0291178 	0.254091 	0 0.0288927 	0.254793 	0 0.028668 	0.255491 	0 0.0284436 	0.256185 	0 0.02822 	0.256875 	0 0.0279917 	0.257656 	0 0.0276748 	0.258339 	0 0.0273582 	0.259016 	0 0.027042 	0.259687 	0 0.0267265 	0.260351 	0 0.0265421 	0.261026 	0 0.0262028 	0.261525 	0 0.0258469 	0.262 	0 0.0254909 	0.262469 	0 0.0251355 	0.26293 	0 0.0249026 	0.26341 	0 0.02461 	0.263817 	0 0.0242104 	0.264095 	0 0.0238106 	0.264366 	0 0.0234109 	0.26463 	0 0.0231267 	0.264919 	0 0.0228424 	0.265203 	0 0.0224194 	0.265316 	0 0.0219737 	0.265395 	0 0.021528 	0.265466 	0 0.0211918 	0.265566 	0 0.0208552 	0.265661 	0 0.0204545 	0.265671 	0 0.019963 	0.265563 	0 0.0194711 	0.265446 	0 0.0190837 	0.26536 	0 0.0186955 	0.265267 	0 0.0183045 	0.265165 	0 0.0177684 	0.264874 	0 0.0172316 	0.264573 	0 0.0167949 	0.264303 	0 0.0163571 	0.264024 	0 0.0159183 	0.263737 	0 0.0153859 	0.263325 	0 0.0148062 	0.262845 	0 0.0143228 	0.262391 	0 0.013838 	0.261928 	0 0.0133517 	0.261454 	0 0.0128153 	0.260911 	0 0.0121953 	0.260255 	0 0.0116681 	0.259617 	0 0.0111391 	0.258969 	0 0.0106083 	0.258309 	0 0.0100591 	0.257619 	0 0.00940153 	0.256789 	0 0.00883341 	0.255967 	0 0.00826303 	0.255133 	0 0.00769037 	0.254287 	0 0.00711542 	0.253428 	0 0.00642793 	0.252432 	0 0.00582144 	0.251424 	0 0.00521221 	0.250402 	0 0.0046002 	0.249367 	0 0.00398539 	0.248318 	0 0.00327692 	0.247161 	0 0.00263399 	0.245965 	0 0.00198776 	0.244754 	0 0.0013382 	0.243528 	0 0.000685263 	0.242285 	0 -5.15273e-05 	0.240955 	0 -0.000729777 	0.239567 	0 -0.00141195 	0.238163 	0 -0.00209811 	0.236742 	0 -0.00278832 	0.235302 	0 -0.00356084 	0.233786 	0 -0.00427453 	0.232201 	0 -0.0049929 	0.230598 	0 -0.00571603 	0.228975 	0 -0.00644401 	0.227331 	0 -0.00726022 	0.225619 	0 -0.00801107 	0.22383 	0 -0.0087675 	0.222018 	0 -0.00952963 	0.220184 	0 -0.0103036 	0.218325 	0 -0.0111667 	0.21641 	0 -0.0119581 	0.214405 	0 -0.0127563 	0.212375 	0 -0.0135613 	0.210319 	0 -0.0144008 	0.208233 	0 -0.0153061 	0.206107 	0 -0.0161438 	0.203872 	0 -0.0169897 	0.201609 	0 -0.0178441 	0.199314 	0 -0.0187607 	0.196997 	0 -0.0197159 	0.19464 	0 -0.0206083 	0.192157 	0 -0.021511 	0.189638 	0 -0.0224348 	0.187088 	0 -0.023432 	0.184532 	0 -0.0244485 	0.181917 	0 -0.0254084 	0.179157 	0 -0.0263812 	0.176354 	0 -0.0274159 	0.173552 	0 -0.0284835 	0.170721 	0 -0.0295789 	0.167806 	0 -0.030625 	0.164729 	0 -0.031714 	0.161638 	0 -0.0328542 	0.158543 	0 -0.0340137 	0.155388 	0 -0.035216 	0.152109 	0 -0.0360734 	0.149566 	0 -0.0369783 	0.147073 	0 -0.0378963 	0.144541 	0 -0.0388278 	0.141969 	0 -0.0394381 	0.140281 	0 -0.0398412 	0.139148 	0 -0.0402467 	0.138008 	0 -0.0406548 	0.136859 	0 -0.0410665 	0.135709 	0 -0.041495 	0.134587 	0 -0.0428039 	0.130891 	0 -0.0441406 	0.127112 	0 -0.0455068 	0.123245 	0 -0.0469129 	0.119407 	0 -0.048449 	0.115323 	0 -0.0499569 	0.111056 	0 -0.051504 	0.106689 	0 -0.0530919 	0.102443 	0 -0.054722 	0.0980796 	0 -0.0566153 	0.0930052 	0 -0.0568313 	0.0923988 	0 -0.0570478 	0.0917942 	0 -0.0572628 	0.0912196 	0 -0.0574786 	0.090643 	0 -0.0576793 	0.0901066 	0 -0.0592511 	0.0859058 	0 -0.0608608 	0.0816036 	0 -0.062509 	0.0771981 	0 -0.0641569 	0.0729543 	0 -0.0663249 	0.0673729 	0 -0.0670975 	0.0653214 	0 -0.0678775 	0.0632516 	0 -0.0686493 	0.061232 	0 -0.0694139 	0.0592584 	0 -0.070034 	0.0576581 	0 -0.0717124 	0.0533779 	0 -0.0734149 	0.0490403 	0 -0.0750793 	0.0448506 	0 -0.0767392 	0.0406926 	0 -0.0792675 	0.0343635 	0 -0.0794015 	0.0340305 	0 -0.0795319 	0.0337071 	0 -0.0796587 	0.0333938 	0 -0.0797855 	0.0330806 	0 -0.0799246 	0.0327368 	0 -0.0812724 	0.0293522 	0 -0.0826211 	0.0259728 	0 -0.0839684 	0.0226047 	0 -0.0852766 	0.0193268 	0 -0.0863473 	0.0166275 	0 -0.0875486 	0.0135667 	0 -0.088743 	0.0105311 	0 -0.0899289 	0.00752397 	0 -0.0910134 	0.00471544 	0 -0.0920329 	0.00207902 	0 -0.0930127 	-0.000569654 	0 -0.0939841 	-0.00318968 	0 -0.0949433 	-0.00577414 	0 -0.0958082 	-0.00818391 	0 -0.0966709 	-0.0105804 	0 -0.0974656 	-0.0129783 	0 -0.0982532 	-0.0153491 	0 -0.0990335 	-0.0176925 	0 -0.0997767 	-0.0199595 	0 -0.100486 	-0.0221891 	0 -0.101116 	-0.0244285 	0 -0.101741 	-0.0266433 	0 -0.102361 	-0.0288335 	0 -0.102976 	-0.0309992 	0 -0.10321 	-0.031821 	0 -0.103287 	-0.0321081 	0 -0.103365 	-0.0323948 	0 -0.103442 	-0.0326811 	0 -0.103519 	-0.032967 	0 -0.103597 	-0.0332545 	0 -0.10406 	-0.035444 	0 -0.104501 	-0.0375752 	0 -0.104936 	-0.0396856 	0 -0.105368 	-0.0417754 	0 -0.10582 	-0.0439692 	0 -0.10616 	-0.0461506 	0 -0.106495 	-0.0483086 	0 -0.106826 	-0.0504435 	0 -0.107134 	-0.0525149 	0 -0.107427 	-0.0546458 	0 -0.107477 	-0.0552443 	0 -0.107526 	-0.0558411 	0 -0.107575 	-0.0564363 	0 -0.107624 	-0.0570299 	0 -0.107668 	-0.0575746 	0 -0.107747 	-0.0591138 	0 -0.107825 	-0.0606429 	0 -0.1079 	-0.0621621 	0 -0.107975 	-0.0636714 	0 -0.108052 	-0.0652598 	0 -0.108017 	-0.0673819 	0 -0.107981 	-0.0694833 	0 -0.107942 	-0.0715641 	0 -0.107902 	-0.0736244 	0 -0.107869 	-0.0752349 	0 -0.10786 	-0.0753935 	0 -0.107852 	-0.0755519 	0 -0.107843 	-0.0757102 	0 -0.107834 	-0.0758684 	0 -0.107826 	-0.0760276 	0 -0.107537 	-0.0782447 	0 -0.107226 	-0.0803798 	0 -0.106915 	-0.0824993 	0 -0.106605 	-0.084603 	0 -0.106261 	-0.0869184 	0 -0.106136 	-0.0874347 	0 -0.10601 	-0.0879499 	0 -0.105885 	-0.0884641 	0 -0.10576 	-0.0889772 	0 -0.105641 	-0.0894681 	0 -0.105192 	-0.0911981 	0 -0.104743 	-0.0929187 	0 -0.104296 	-0.0946298 	0 -0.103851 	-0.0963314 	0 -0.103361 	-0.0981966 	0 -0.103078 	-0.0989547 	0 -0.102796 	-0.0997108 	0 -0.102515 	-0.100465 	0 -0.102234 	-0.101217 	0 -0.101969 	-0.101927 	0 -0.101373 	-0.103546 	0 -0.100778 	-0.105157 	0 -0.100187 	-0.106761 	0 -0.0995977 	-0.108358 	0 -0.0989448 	-0.110127 	0 -0.0986257 	-0.110771 	0 -0.0983074 	-0.111413 	0 -0.0979899 	-0.112054 	0 -0.0976732 	-0.112694 	0 -0.0973697 	-0.113308 	0 -0.0964844 	-0.115219 	0 -0.0956051 	-0.117123 	0 -0.0947319 	-0.119019 	0 -0.0938648 	-0.120906 	0 -0.0928682 	-0.123081 	0 -0.0927473 	-0.123283 	0 -0.0926266 	-0.123484 	0 -0.0925059 	-0.123685 	0 -0.0923854 	-0.123886 	0 -0.0922663 	-0.124084 	0 -0.0911339 	-0.12618 	0 -0.0899945 	-0.128222 	0 -0.0888434 	-0.130199 	0 -0.0877004 	-0.132161 	0 -0.0866725 	-0.133927 	0 -0.0863119 	-0.134619 	0 -0.0859521 	-0.135309 	0 -0.0855932 	-0.135998 	0 -0.0852352 	-0.136686 	0 -0.0848541 	-0.137419 	0 -0.0840737 	-0.138589 	0 -0.0832977 	-0.139757 	0 -0.0825261 	-0.140921 	0 -0.0817591 	-0.142083 	0 -0.0810318 	-0.143188 	0 -0.0799337 	-0.145118 	0 -0.0788459 	-0.147042 	0 -0.0777683 	-0.14896 	0 -0.076701 	-0.150872 	0 -0.0756517 	-0.152535 	0 -0.075502 	-0.152799 	0 -0.0753525 	-0.153063 	0 -0.0752031 	-0.153326 	0 -0.0750539 	-0.15359 	0 -0.0749003 	-0.153861 	0 -0.0739156 	-0.155216 	0 -0.0729378 	-0.156568 	0 -0.0719666 	-0.157916 	0 -0.0710023 	-0.159261 	0 -0.0700825 	-0.160549 	0 -0.069059 	-0.162281 	0 -0.0680447 	-0.164009 	0 -0.0670392 	-0.165733 	0 -0.0659836 	-0.167328 	0 -0.0649285 	-0.168758 	0 -0.0644514 	-0.169549 	0 -0.0639758 	-0.170339 	0 -0.0635016 	-0.171127 	0 -0.063029 	-0.171912 	0 -0.0625069 	-0.172781 	0 -0.0619796 	-0.173456 	0 -0.0614543 	-0.17413 	0 -0.0609309 	-0.174804 	0 -0.0604095 	-0.175478 	0 -0.0598973 	-0.176142 	0 -0.0589807 	-0.177651 	0 -0.0579905 	-0.178996 	0 -0.0569623 	-0.180249 	0 -0.05594 	-0.181497 	0 -0.0549474 	-0.182711 	0 -0.0540575 	-0.184125 	0 -0.0531732 	-0.185534 	0 -0.0522945 	-0.186939 	0 -0.0513589 	-0.188217 	0 -0.0503725 	-0.18932 	0 -0.0496831 	-0.190341 	0 -0.0489961 	-0.191357 	0 -0.0483117 	-0.192369 	0 -0.0476297 	-0.193377 	0 -0.0468218 	-0.194571 	0 -0.046662 	-0.194748 	0 -0.0465023 	-0.194925 	0 -0.0463428 	-0.195102 	0 -0.0461835 	-0.195278 	0 -0.0460247 	-0.195455 	0 -0.0451587 	-0.196426 	0 -0.0442562 	-0.197317 	0 -0.0433573 	-0.198205 	0 -0.0424621 	-0.199091 	0 -0.0415812 	-0.199964 	0 -0.0408366 	-0.201025 	0 -0.0400477 	-0.201991 	0 -0.0391598 	-0.202753 	0 -0.0382744 	-0.203511 	0 -0.0373999 	-0.204258 	0 -0.0366669 	-0.205186 	0 -0.0359361 	-0.206111 	0 -0.035182 	-0.206982 	0 -0.0343041 	-0.207602 	0 -0.0334345 	-0.208211 	0 -0.0327083 	-0.208993 	0 -0.0319836 	-0.209769 	0 -0.0312604 	-0.210541 	0 -0.0305053 	-0.211243 	0 -0.029639 	-0.211707 	0 -0.0289156 	-0.212331 	0 -0.0281929 	-0.212948 	0 -0.027471 	-0.21356 	0 -0.0267499 	-0.214165 	0 -0.0259689 	-0.214639 	0 -0.0255145 	-0.214925 	0 -0.0250603 	-0.21521 	0 -0.0246061 	-0.215491 	0 -0.0241519 	-0.215769 	0 -0.0236071 	-0.2161 	0 -0.0233491 	-0.216193 	0 -0.0230912 	-0.216287 	0 -0.0228334 	-0.21638 	0 -0.0225756 	-0.216473 	0 -0.0223183 	-0.216565 	0 -0.0216045 	-0.216762 	0 -0.0208581 	-0.216892 	0 -0.0201118 	-0.217019 	0 -0.0193657 	-0.217143 	0 -0.0186223 	-0.217264 	0 -0.0179848 	-0.217466 	0 -0.0172317 	-0.217446 	0 -0.0164782 	-0.217422 	0 -0.0157243 	-0.217395 	0 -0.0149721 	-0.217363 	0 -0.0143647 	-0.217477 	0 -0.0136213 	-0.217342 	0 -0.0128548 	-0.217161 	0 -0.0120873 	-0.216975 	0 -0.0113205 	-0.216784 	0 -0.0106939 	-0.21672 	0 -0.00997979 	-0.216503 	0 -0.00919367 	-0.216158 	0 -0.00840604 	-0.215808 	0 -0.00761811 	-0.215452 	0 -0.00696485 	-0.215199 	0 -0.00625716 	-0.214857 	0 -0.00544407 	-0.214343 	0 -0.00462886 	-0.213822 	0 -0.00381233 	-0.213294 	0 -0.00312458 	-0.212843 	0 -0.00240022 	-0.212336 	0 -0.00155214 	-0.211647 	0 -0.000701221 	-0.210948 	0 0.000152169 	-0.210241 	0 0.000882868 	-0.209582 	0 0.00164744 	-0.208876 	0 0.00253941 	-0.208004 	0 0.00343506 	-0.207122 	0 0.00433464 	-0.206228 	0 0.0051176 	-0.205352 	0 0.00594723 	-0.20442 	0 0.00689349 	-0.203357 	0 0.00784448 	-0.202282 	0 0.00880136 	-0.201193 	0 0.0096474 	-0.200087 	0 0.0105695 	-0.198909 	0 0.0115823 	-0.197646 	0 0.0126012 	-0.196368 	0 0.0136288 	-0.195073 	0 0.0145506 	-0.193723 	0 0.0155962 	-0.192289 	0 0.0166898 	-0.190814 	0 0.0177911 	-0.189323 	0 0.0189054 	-0.187807 	0 0.0199414 	-0.18619 	0 0.0211227 	-0.184511 	0 0.0223138 	-0.182812 	0 0.0235148 	-0.181093 	0 0.0247355 	-0.17934 	0 0.0253595 	-0.178345 	0 0.026039 	-0.177341 	0 0.0267221 	-0.176331 	0 0.0274086 	-0.175315 	0 0.0279029 	-0.174583 	0 0.0285538 	-0.173539 	0 0.0292075 	-0.172487 	0 0.0298642 	-0.171428 	0 0.0305239 	-0.17036 	0 0.0312365 	-0.169313 	0 0.032617 	-0.167045 	0 0.0340114 	-0.164744 	0 0.0354198 	-0.162409 	0 0.036865 	-0.160065 	0 0.0384632 	-0.157756 	0 0.0399869 	-0.155188 	0 0.0415282 	-0.152581 	0 0.0431105 	-0.149969 	0 0.0448199 	-0.147479 	0 0.0466132 	-0.144855 	0 0.0483125 	-0.141951 	0 0.0500843 	-0.139094 	0 0.0519689 	-0.136354 	0 0.0538786 	-0.13357 	0 0.0559358 	-0.130563 	0 0.0562637 	-0.130002 	0 0.0566052 	-0.129467 	0 0.0569602 	-0.128958 	0 0.0573162 	-0.128447 	0 0.0576431 	-0.127978 	0 0.0592856 	-0.125369 	0 0.0609443 	-0.122726 	0 0.0626192 	-0.120048 	0 0.0643663 	-0.117502 	0 0.0663426 	-0.114808 	0 0.0685353 	-0.111331 	0 0.070775 	-0.107869 	0 0.0731519 	-0.104706 	0 0.0755542 	-0.101502 	0 0.0771237 	-0.0994048 	0 0.0773688 	-0.0990367 	0 0.0776141 	-0.0986681 	0 0.0778616 	-0.0983068 	0 0.0781184 	-0.0979794 	0 0.0783822 	-0.097643 	0 0.0808316 	-0.0940401 	0 0.0832981 	-0.090404 	0 0.0858356 	-0.0869446 	0 0.0884527 	-0.0837099 	0 0.0918203 	-0.0795347 	0 0.0918434 	-0.0795013 	0 0.0918666 	-0.079468 	0 0.0918904 	-0.0794374 	0 0.0919145 	-0.0794081 	0 0.0919387 	-0.0793787 	0 0.0942792 	-0.0761078 	0 0.0966184 	-0.0728305 	0 0.0989878 	-0.0696862 	0 0.101427 	-0.066844 	0 0.10327 	-0.0646893 	0 0.104022 	-0.0636186 	0 0.104773 	-0.0625581 	0 0.105549 	-0.0616256 	0 0.106323 	-0.0606932 	0 0.107233 	-0.0595935 	0 0.108263 	-0.0581638 	0 0.109289 	-0.0567373 	0 0.110312 	-0.0553141 	0 0.111369 	-0.0540548 	0 0.112357 	-0.0529341 	0 0.113839 	-0.0507259 	0 0.115307 	-0.0485239 	0 0.116798 	-0.0465231 	0 0.118296 	-0.0446449 	0 0.119652 	-0.0429345 	0 0.120542 	-0.0413832 	0 0.121439 	-0.0399781 	0 0.122337 	-0.0386426 	0 0.123226 	-0.0373086 	0 0.124479 	-0.0354125 	0 0.124654 	-0.0351106 	0 0.124829 	-0.0348089 	0 0.125004 	-0.0345074 	0 0.125179 	-0.0342109 	0 0.125361 	-0.0339598 	0 0.126183 	-0.032173 	0 0.126994 	-0.0303901 	0 0.127793 	-0.0286114 	0 0.128589 	-0.026893 	0 0.12937 	-0.025449 	0 0.129916 	-0.0236569 	0 0.130449 	-0.0218666 	0 0.130971 	-0.0200786 	0 0.131495 	-0.0185524 	0 0.131997 	-0.0170654 	0 0.132259 	-0.0152185 	0 0.132509 	-0.0133716 	0 0.132746 	-0.0116711 	0 0.132971 	-0.0100799 	0 0.133181 	-0.00851055 	0 0.133149 	-0.00657275 	0 0.133104 	-0.00463331 	0 0.133034 	-0.00292004 	0 0.13295 	-0.00122748 	0 0.132856 	0.000458312 	0 0.132515 	0.00251491 	0 0.13216 	0.00457497 	0 0.131771 	0.00640709 	0 0.131369 	0.00823034 	0 0.130952 	0.0100663 	0 0.130286 	0.0122671 	0 0.129606 	0.0144733 	0 0.128895 	0.0165485 	0 0.128161 	0.0185323 	0 0.127402 	0.0205587 	0 0.126391 	0.0229318 	0 0.125367 	0.0253124 	0 0.124328 	0.0276995 	0 0.12326 	0.0299659 	0 0.122128 	0.0322398 	0 0.120847 	0.0346445 	0 0.119556 	0.0370573 	0 0.118254 	0.0394771 	0 0.116944 	0.0419029 	0 0.116424 	0.0428589 	0 0.116139 	0.0433891 	0 0.115854 	0.0439197 	0 0.115568 	0.0444506 	0 0.115282 	0.044982 	0 0.11499 	0.0455233 	0 0.11322 	0.0485777 	0 0.111423 	0.0515437 	0 0.109619 	0.0545243 	0 0.10781 	0.0575175 	0 0.105761 	0.0609122 	0 0.104001 	0.0637227 	0 0.102244 	0.066534 	0 0.10049 	0.0693439 	0 0.0987422 	0.0721504 	0 0.0976778 	0.073862 	0 0.0970203 	0.0749729 	0 0.096364 	0.0760832 	0 0.0957089 	0.0771928 	0 0.0950552 	0.0783017 	0 0.0943488 	0.0795018 	0 0.0919122 	0.0834745 	0 0.0895028 	0.0874259 	0 0.0871229 	0.0913509 	0 0.084775 	0.0952455 	0 0.0832795 	0.0977403 	0 0.0827281 	0.0987361 	0 0.082179 	0.0997297 	0 0.0816323 	0.100721 	0 0.081088 	0.101711 	0 0.0804912 	0.102798 	0 0.0786154 	0.106062 	0 0.0767701 	0.109299 	0 0.0749556 	0.112507 	0 0.0731718 	0.115685 	0 0.071729 	0.118276 	0 0.0702416 	0.12126 	0 0.0687802 	0.124219 	0 0.0673445 	0.127155 	0 0.0659339 	0.130065 	0 0.064032 	0.134026 	0 0.0637375 	0.134617 	0 0.0634441 	0.135206 	0 0.0631518 	0.135795 	0 0.0628607 	0.136382 	0 0.0625754 	0.136959 	0 0.0609988 	0.140545 	0 0.0594081 	0.14399 	0 0.0578517 	0.147395 	0 0.0563284 	0.150759 	0 0.0549503 	0.153833 	0 0.0537232 	0.157128 	0 0.0525231 	0.160392 	0 0.051349 	0.163625 	0 0.050168 	0.166774 	0 0.0489917 	0.169638 	0 0.0483805 	0.1715 	0 0.0477765 	0.173353 	0 0.0471795 	0.175194 	0 0.0465895 	0.177026 	0 0.045873 	0.179263 	0 0.045546 	0.180245 	0 0.0452211 	0.181224 	0 0.0448982 	0.182201 	0 0.0445773 	0.183175 	0 0.0442608 	0.184139 	0 0.0435223 	0.186882 	0 0.0427178 	0.18951 	0 0.0419261 	0.192117 	0 0.0411468 	0.194705 	0 0.0403918 	0.197233 	0 0.039869 	0.199794 	0 0.0393492 	0.202334 	0 0.0386886 	0.204691 	0 0.0380366 	0.207032 	0 0.0373994 	0.209334 	0 0.036991 	0.21165 	0 0.036589 	0.213953 	0 0.036193 	0.216245 	0 0.0356454 	0.218358 	0 0.0350954 	0.220432 	0 0.0347665 	0.222507 	0 0.0344418 	0.224573 	0 0.0341213 	0.226628 	0 0.0338048 	0.228675 	0 0.0333171 	0.230522 	0 0.0330383 	0.232363 	0 0.0327623 	0.234195 	0 0.0324892 	0.236019 	0 0.0322189 	0.237835 	0 0.0319218 	0.239606 	0 0.0318675 	0.239952 	0 0.0318132 	0.240297 	0 0.0317591 	0.240642 	0 0.0317051 	0.240987 	0 0.0316495 	0.241342 	0 0.031454 	0.242522 	0 0.0312597 	0.243698 	0 0.0310665 	0.244871 	0 0.0308744 	0.246041 	0 0.0306838 	0.247204 	0 0.0305431 	0.24859 	0 0.0302977 	0.249878 	0 0.0300536 	0.25116 	0 0.0298108 	0.252436 	0 0.0295697 	0.253705 	0 0.029495 	0.254953 	0 0.0292844 	0.25607 	0 0.0290279 	0.257139 	0 0.0287723 	0.258202 	0 0.0285179 	0.259258 	0 0.0284166 	0.260304 	0 0.0282953 	0.261327 	0 0.0280139 	0.262188 	0 0.0277331 	0.263043 	0 0.0274532 	0.263892 	0 0.0273145 	0.26474 	0 0.0271762 	0.265586 	0 0.0269452 	0.266331 	0 0.0266301 	0.266983 	0 0.0263155 	0.267629 	0 0.0261321 	0.268285 	0 0.0259489 	0.268938 	0 0.025766 	0.269586 	0 0.0254144 	0.270046 	0 0.025059 	0.270494 	0 0.0248262 	0.270961 	0 0.0245935 	0.271424 	0 0.0243608 	0.271882 	0 0.0240501 	0.272247 	0 0.0236502 	0.272502 	0 0.0233658 	0.272784 	0 0.0230812 	0.27306 	0 0.0227964 	0.273332 	0 0.0225114 	0.273598 	0 0.0220663 	0.273667 	0 0.0217299 	0.273765 	0 0.0213932 	0.273858 	0 0.021056 	0.273945 	0 0.0207184 	0.274025 	0 0.0202937 	0.273993 	0 0.0199066 	0.273911 	0 0.0195188 	0.273822 	0 0.0191304 	0.273726 	0 0.0187412 	0.273623 	0 0.0183257 	0.27348 	0 0.0181105 	0.273352 	0 0.0178951 	0.273221 	0 0.0176794 	0.273088 	0 0.0174635 	0.272954 	0 0.0172219 	0.272801 	0 0.0170036 	0.272628 	0 0.016785 	0.272453 	0 0.0165663 	0.272277 	0 0.0163473 	0.2721 	0 0.0161282 	0.271921 	0 0.0156664 	0.271455 	0 0.0151808 	0.270948 	0 0.0146938 	0.270433 	0 0.0142056 	0.269911 	0 0.0137166 	0.269382 	0 0.0132523 	0.268812 	0 0.0127247 	0.268138 	0 0.0121955 	0.267456 	0 0.0116646 	0.266765 	0 0.0111325 	0.266067 	0 0.0106595 	0.265378 	0 0.0100933 	0.264538 	0 0.00952507 	0.263689 	0 0.00895471 	0.26283 	0 0.00838266 	0.261961 	0 0.00789497 	0.261135 	0 0.00729304 	0.260129 	0 0.00668857 	0.259111 	0 0.00608153 	0.258083 	0 0.00547225 	0.257043 	0 0.00496094 	0.256058 	0 0.00432801 	0.254887 	0 0.00368948 	0.2537 	0 0.00304784 	0.2525 	0 0.00240331 	0.251287 	0 0.00185579 	0.250116 	0 0.0011991 	0.248785 	0 0.000527788 	0.247425 	0 -0.000147245 	0.24605 	0 -0.000825961 	0.244662 	0 -0.00140924 	0.243297 	0 -0.00209736 	0.24179 	0 -0.00280142 	0.240252 	0 -0.00350993 	0.238697 	0 -0.0042231 	0.237126 	0 -0.00484301 	0.235561 	0 -0.00557136 	0.233862 	0 -0.00630967 	0.232138 	0 -0.00705331 	0.230397 	0 -0.00780288 	0.228635 	0 -0.00847126 	0.22685 	0 -0.00924075 	0.224954 	0 -0.0100165 	0.223037 	0 -0.0107986 	0.221098 	0 -0.0115884 	0.219135 	0 -0.0123218 	0.217114 	0 -0.0131326 	0.215015 	0 -0.013951 	0.212892 	0 -0.0147772 	0.210744 	0 -0.0156135 	0.208564 	0 -0.0164257 	0.206296 	0 -0.0172853 	0.20398 	0 -0.0181543 	0.201635 	0 -0.0190328 	0.19926 	0 -0.019925 	0.196844 	0 -0.0199338 	0.196818 	0 -0.0199432 	0.196793 	0 -0.0199525 	0.196767 	0 -0.0199618 	0.196741 	0 -0.0199711 	0.196715 	0 -0.0208602 	0.194184 	0 -0.0217598 	0.191619 	0 -0.0226701 	0.189018 	0 -0.0235916 	0.18638 	0 -0.0245635 	0.183717 	0 -0.0255274 	0.1809 	0 -0.0265047 	0.178041 	0 -0.0274958 	0.175137 	0 -0.0285082 	0.172198 	0 -0.0295988 	0.169258 	0 -0.0306474 	0.166142 	0 -0.0317132 	0.162973 	0 -0.032797 	0.15975 	0 -0.0339431 	0.156575 	0 -0.0351374 	0.153293 	0 -0.0362986 	0.149819 	0 -0.0374828 	0.146278 	0 -0.0387226 	0.142792 	0 -0.0399959 	0.139263 	0 -0.0413397 	0.135537 	0 -0.0425742 	0.131859 	0 -0.0438578 	0.128258 	0 -0.045175 	0.124608 	0 -0.046523 