# vtk DataFile Version 2.0
track0
ASCII
DATASET POLYDATA
POINTS 20002 float
1.11022e-18 0.5 1.11022e-18
0.391304 0.5 1.11022e-18
0.391043 0.49939 1.11022e-18
0.390785 0.498779 1.11022e-18
0.39053 0.498167 1.11022e-18
0.390277 0.497554 1.11022e-18
0.39 0.496877 1.11022e-18
0.389446 0.495501 1.11022e-18
0.388905 0.494121 1.11022e-18
0.388375 0.492736 1.11022e-18
0.387857 0.491347 1.11022e-18
0.387368 0.49 1.11022e-18
0.386659 0.488 1.11022e-18
0.38597 0.485993 1.11022e-18
0.3853 0.483979 1.11022e-18
0.384651 0.481959 1.11022e-18
0.384041 0.48 1.11022e-18
0.383438 0.478 1.11022e-18
0.382851 0.475995 1.11022e-18
0.382278 0.473986 1.11022e-18
0.38172 0.471973 1.11022e-18
0.381188 0.47 1.11022e-18
0.38095 0.469094 1.11022e-18
0.380715 0.468186 1.11022e-18
0.380483 0.467279 1.11022e-18
0.380253 0.46637 1.11022e-18
0.38 0.465361 1.11022e-18
0.379735 0.464289 1.11022e-18
0.379473 0.463216 1.11022e-18
0.379214 0.462142 1.11022e-18
0.378959 0.461067 1.11022e-18
0.378708 0.46 1.11022e-18
0.378245 0.458 1.11022e-18
0.37779 0.455998 1.11022e-18
0.377345 0.453994 1.11022e-18
0.37691 0.451987 1.11022e-18
0.376488 0.45 1.11022e-18
0.376073 0.448 1.11022e-18
0.375666 0.445999 1.11022e-18
0.375265 0.443996 1.11022e-18
0.374872 0.441991 1.11022e-18
0.374491 0.44 1.11022e-18
0.374115 0.438 1.11022e-18
0.373746 0.435999 1.11022e-18
0.373383 0.433997 1.11022e-18
0.373026 0.431993 1.11022e-18
0.372678 0.43 1.11022e-18
0.372335 0.428 1.11022e-18
0.371999 0.425999 1.11022e-18
0.371668 0.423997 1.11022e-18
0.371342 0.421994 1.11022e-18
0.371023 0.42 1.11022e-18
0.370818 0.418696 1.11022e-18
0.370616 0.417392 1.11022e-18
0.370416 0.416087 1.11022e-18
0.370218 0.414782 1.11022e-18
0.37 0.413331 1.11022e-18
0.369901 0.412665 1.11022e-18
0.369803 0.411999 1.11022e-18
0.369705 0.411332 1.11022e-18
0.369608 0.410666 1.11022e-18
0.369512 0.41 1.11022e-18
0.369224 0.408 1.11022e-18
0.36894 0.405999 1.11022e-18
0.368661 0.403998 1.11022e-18
0.368387 0.401996 1.11022e-18
0.368119 0.4 1.11022e-18
0.367854 0.398 1.11022e-18
0.367594 0.396 1.11022e-18
0.367337 0.393998 1.11022e-18
0.367086 0.391997 1.11022e-18
0.36684 0.39 1.11022e-18
0.366598 0.388 1.11022e-18
0.36636 0.386 1.11022e-18
0.366126 0.383999 1.11022e-18
0.365896 0.381997 1.11022e-18
0.365671 0.38 1.11022e-18
0.365451 0.378 1.11022e-18
0.365234 0.376 1.11022e-18
0.365022 0.373999 1.11022e-18
0.364813 0.371998 1.11022e-18
0.36461 0.37 1.11022e-18
0.364411 0.368 1.11022e-18
0.364215 0.366 1.11022e-18
0.364024 0.363999 1.11022e-18
0.363836 0.361998 1.11022e-18
0.363654 0.36 1.11022e-18
0.363476 0.358 1.11022e-18
0.363302 0.356 1.11022e-18
0.363132 0.353999 1.11022e-18
0.362965 0.351998 1.11022e-18
0.362804 0.35 1.11022e-18
0.362647 0.348 1.11022e-18
0.362494 0.346 1.11022e-18
0.362346 0.343999 1.11022e-18
0.362201 0.341998 1.11022e-18
0.362061 0.34 1.11022e-18
0.361926 0.338 1.11022e-18
0.361795 0.336 1.11022e-18
0.361669 0.333999 1.11022e-18
0.361546 0.331998 1.11022e-18
0.361429 0.33 1.11022e-18
0.361316 0.328 1.11022e-18
0.361207 0.326 1.11022e-18
0.361103 0.323999 1.11022e-18
0.361004 0.321999 1.11022e-18
0.360909 0.32 1.11022e-18
0.360819 0.318 1.11022e-18
0.360734 0.316 1.11022e-18
0.360653 0.313999 1.11022e-18
0.360577 0.311999 1.11022e-18
0.360507 0.31 1.11022e-18
0.360441 0.308 1.11022e-18
0.36038 0.306 1.11022e-18
0.360324 0.304 1.11022e-18
0.360273 0.301999 1.11022e-18
0.360228 0.3 1.11022e-18
0.360187 0.298 1.11022e-18
0.360152 0.296 1.11022e-18
0.360123 0.294 1.11022e-18
0.360098 0.291999 1.11022e-18
0.36008 0.29 1.11022e-18
0.360066 0.288 1.11022e-18
0.360059 0.286 1.11022e-18
0.360057 0.284 1.11022e-18
0.360061 0.282 1.11022e-18
0.360072 0.28 1.11022e-18
0.360088 0.278 1.11022e-18
0.36011 0.276 1.11022e-18
0.360139 0.274 1.11022e-18
0.360174 0.272 1.11022e-18
0.360216 0.27 1.11022e-18
0.360264 0.268 1.11022e-18
0.360319 0.266 1.11022e-18
0.360382 0.264001 1.11022e-18
0.360451 0.262001 1.11022e-18
0.360527 0.26 1.11022e-18
0.360612 0.258 1.11022e-18
0.360703 0.256 1.11022e-18
0.360803 0.254001 1.11022e-18
0.36091 0.252002 1.11022e-18
0.361026 0.25 1.11022e-18
0.361151 0.248 1.11022e-18
0.361284 0.246001 1.11022e-18
0.361426 0.244002 1.11022e-18
0.361578 0.242004 1.11022e-18
0.361739 0.24 1.11022e-18
0.36191 0.238 1.11022e-18
0.362092 0.236001 1.11022e-18
0.362283 0.234003 1.11022e-18
0.362486 0.232006 1.11022e-18
0.362701 0.23 1.11022e-18
0.362927 0.228 1.11022e-18
0.363166 0.226001 1.11022e-18
0.363416 0.224004 1.11022e-18
0.36368 0.222009 1.11022e-18
0.36396 0.22 1.11022e-18
0.364254 0.218 1.11022e-18
0.364562 0.216002 1.11022e-18
0.364885 0.214007 1.11022e-18
0.365225 0.212014 1.11022e-18
0.365587 0.21 1.11022e-18
0.365965 0.208 1.11022e-18
0.366361 0.206004 1.11022e-18
0.366777 0.204011 1.11022e-18
0.367215 0.202023 1.11022e-18
0.367683 0.2 1.11022e-18
0.368147 0.198105 1.11022e-18
0.368632 0.196215 1.11022e-18
0.369141 0.194331 1.11022e-18
0.369676 0.192454 1.11022e-18
0.37 0.191373 1.11022e-18
0.370085 0.191099 1.11022e-18
0.370171 0.190824 1.11022e-18
0.370257 0.19055 1.11022e-18
0.370344 0.190276 1.11022e-18
0.370432 0.19 1.11022e-18
0.371075 0.188 1.11022e-18
0.371752 0.186011 1.11022e-18
0.372465 0.184035 1.11022e-18
0.373215 0.182073 1.11022e-18
0.374058 0.18 1.11022e-18
0.374926 0.178 1.11022e-18
0.375844 0.176022 1.11022e-18
0.376814 0.17407 1.11022e-18
0.37784 0.172146 1.11022e-18
0.379071 0.17 1.11022e-18
0.379257 0.169703 1.11022e-18
0.379444 0.169408 1.11022e-18
0.379634 0.169113 1.11022e-18
0.379825 0.16882 1.11022e-18
0.38 0.168554 1.11022e-18
0.381141 0.166843 1.11022e-18
0.382341 0.165172 1.11022e-18
0.383601 0.163547 1.11022e-18
0.384925 0.161973 1.11022e-18
0.386726 0.16 1.11022e-18
0.387381 0.15936 1.11022e-18
0.388049 0.158734 1.11022e-18
0.38873 0.158123 1.11022e-18
0.389425 0.157527 1.11022e-18
0.39 0.157055 1.11022e-18
0.391782 0.155644 1.11022e-18
0.393636 0.154328 1.11022e-18
0.395559 0.153116 1.11022e-18
0.397545 0.15201 1.11022e-18
0.4 0.150815 1.11022e-18
0.400401 0.150652 1.11022e-18
0.400804 0.150493 1.11022e-18
0.401208 0.150338 1.11022e-18
0.401614 0.150187 1.11022e-18
0.40213 0.15 1.11022e-18
0.403704 0.149451 1.11022e-18
0.405297 0.14896 1.11022e-18
0.406906 0.148526 1.11022e-18
0.40853 0.14815 1.11022e-18
0.41 0.147862 1.11022e-18
0.412 0.147531 1.11022e-18
0.414011 0.147273 1.11022e-18
0.41603 0.147087 1.11022e-18
0.418053 0.146971 1.11022e-18
0.42 0.146922 1.11022e-18
0.422 0.14693 1.11022e-18
0.423999 0.146995 1.11022e-18
0.425995 0.147114 1.11022e-18
0.427988 0.147286 1.11022e-18
0.43 0.14751 1.11022e-18
0.432 0.147779 1.11022e-18
0.433993 0.148093 1.11022e-18
0.435979 0.148451 1.11022e-18
0.437958 0.14885 1.11022e-18
0.44 0.149305 1.11022e-18
0.440571 0.149444 1.11022e-18
0.441141 0.149586 1.11022e-18
0.441711 0.149731 1.11022e-18
0.442279 0.149879 1.11022e-18
0.442733 0.15 1.11022e-18
0.444187 0.150393 1.11022e-18
0.445635 0.150805 1.11022e-18
0.447077 0.151235 1.11022e-18
0.448514 0.151684 1.11022e-18
0.45 0.152168 1.11022e-18
0.452 0.152846 1.11022e-18
0.453988 0.153559 1.11022e-18
0.455964 0.154304 1.11022e-18
0.457929 0.155078 1.11022e-18
0.46 0.15593 1.11022e-18
0.461899 0.156744 1.11022e-18
0.463786 0.157584 1.11022e-18
0.465661 0.158451 1.11022e-18
0.467525 0.159342 1.11022e-18
0.468856 0.16 1.11022e-18
0.469085 0.160116 1.11022e-18
0.469313 0.160232 1.11022e-18
0.469542 0.160348 1.11022e-18
0.46977 0.160465 1.11022e-18
0.47 0.160583 1.11022e-18
0.472 0.161613 1.11022e-18
0.473985 0.162673 1.11022e-18
0.475956 0.163759 1.11022e-18
0.477912 0.164871 1.11022e-18
0.48 0.166093 1.11022e-18
0.481295 0.166875 1.11022e-18
0.482582 0.167667 1.11022e-18
0.483863 0.16847 1.11022e-18
0.485138 0.169284 1.11022e-18
0.486239 0.17 1.11022e-18
0.486991 0.170496 1.11022e-18
0.487741 0.170997 1.11022e-18
0.488488 0.171501 1.11022e-18
0.489233 0.172009 1.11022e-18
0.49 0.172538 1.11022e-18
0.492 0.173931 1.11022e-18
0.493981 0.175353 1.11022e-18
0.495942 0.1768 1.11022e-18
0.497884 0.178274 1.11022e-18
0.5 0.179921 1.11022e-18
0.50002 0.179937 1.11022e-18
0.500039 0.179953 1.11022e-18
0.500059 0.179968 1.11022e-18
0.500079 0.179984 1.11022e-18
0.500098 0.18 1.11022e-18
0.502079 0.181588 1.11022e-18
0.504036 0.183205 1.11022e-18
0.505971 0.184848 1.11022e-18
0.507883 0.186518 1.11022e-18
0.51 0.188418 1.11022e-18
0.510342 0.188735 1.11022e-18
0.510684 0.189052 1.11022e-18
0.511024 0.18937 1.11022e-18
0.511364 0.189689 1.11022e-18
0.511694 0.19 1.11022e-18
0.513356 0.191574 1.11022e-18
0.514996 0.193169 1.11022e-18
0.516616 0.194785 1.11022e-18
0.518215 0.196421 1.11022e-18
0.52 0.198293 1.11022e-18
0.520317 0.198635 1.11022e-18
0.520632 0.198977 1.11022e-18
0.520947 0.19932 1.11022e-18
0.521261 0.199663 1.11022e-18
0.521567 0.2 1.11022e-18
0.523253 0.201865 1.11022e-18
0.524913 0.203754 1.11022e-18
0.526545 0.205667 1.11022e-18
0.52815 0.207603 1.11022e-18
0.53 0.209897 1.11022e-18
0.530016 0.209917 1.11022e-18
0.530032 0.209938 1.11022e-18
0.530048 0.209959 1.11022e-18
0.530064 0.209979 1.11022e-18
0.53008 0.21 1.11022e-18
0.531639 0.212 1.11022e-18
0.533168 0.214022 1.11022e-18
0.534669 0.216066 1.11022e-18
0.536141 0.21813 1.11022e-18
0.537436 0.22 1.11022e-18
0.537948 0.22076 1.11022e-18
0.538457 0.221523 1.11022e-18
0.538963 0.222288 1.11022e-18
0.539464 0.223056 1.11022e-18
0.54 0.223886 1.11022e-18
0.540781 0.225108 1.11022e-18
0.541552 0.226337 1.11022e-18
0.542314 0.227572 1.11022e-18
0.543066 0.228813 1.11022e-18
0.543774 0.23 1.11022e-18
0.544947 0.232 1.11022e-18
0.546096 0.234014 1.11022e-18
0.547221 0.236042 1.11022e-18
0.548321 0.238083 1.11022e-18
0.549327 0.24 1.11022e-18
0.549462 0.240263 1.11022e-18
0.549596 0.240527 1.11022e-18
0.54973 0.240791 1.11022e-18
0.549863 0.241055 1.11022e-18
0.55 0.241326 1.11022e-18
0.550871 0.243061 1.11022e-18
0.551725 0.244804 1.11022e-18
0.552564 0.246554 1.11022e-18
0.553387 0.248312 1.11022e-18
0.554159 0.25 1.11022e-18
0.555054 0.252 1.11022e-18
0.555928 0.254009 1.11022e-18
0.556784 0.256026 1.11022e-18
0.55762 0.258051 1.11022e-18
0.558405 0.26 1.11022e-18
0.558724 0.260814 1.11022e-18
[...]
POINT_DATA 20002
 FIELD attributes 1
U 3 20002 float
-2.29662e-19 	-8.90862e-18 	0
0.0665574 	0.155567 	0 0.0661921 	0.156577 	0 0.0658289 	0.157583 	0 0.0654676 	0.158585 	0 0.0651083 	0.159584 	0 0.0647139 	0.160682 	0 0.0639002 	0.162862 	0 0.0630965 	0.165025 	0 0.0623025 	0.167172 	0 0.0615181 	0.169301 	0 0.0607689 	0.171344 	0 0.0598612 	0.1744 	0 0.058971 	0.177428 	0 0.0579587 	0.180257 	0 0.0569582 	0.183051 	0 0.056004 	0.185723 	0 0.0552327 	0.188456 	0 0.054473 	0.191163 	0 0.0537246 	0.193846 	0 0.0529871 	0.196504 	0 0.0521464 	0.198932 	0 0.0518355 	0.200033 	0 0.0515262 	0.201129 	0 0.0512185 	0.202221 	0 0.0509124 	0.203308 	0 0.0505743 	0.20451 	0 0.0502148 	0.205731 	0 0.0498574 	0.206947 	0 0.0495021 	0.208157 	0 0.0491489 	0.209362 	0 0.0488003 	0.210553 	0 0.0483073 	0.212754 	0 0.0476716 	0.214787 	0 0.0470411 	0.216803 	0 0.0464158 	0.218801 	0 0.0458019 	0.220762 	0 0.0453659 	0.222724 	0 0.0449338 	0.224673 	0 0.0443609 	0.22646 	0 0.0437533 	0.228193 	0 0.0431536 	0.229898 	0 0.0427232 	0.231601 	0 0.0422957 	0.233291 	0 0.0418708 	0.23497 	0 0.0413323 	0.236517 	0 0.0407302 	0.23797 	0 0.040289 	0.239422 	0 0.0398497 	0.240861 	0 0.0394121 	0.242289 	0 0.0389763 	0.243706 	0 0.038432 	0.244988 	0 0.03813 	0.245776 	0 0.0378284 	0.246558 	0 0.0375273 	0.247336 	0 0.0372266 	0.248108 	0 0.0368929 	0.248962 	0 0.0367393 	0.249317 	0 0.0365858 	0.249672 	0 0.0364324 	0.250025 	0 0.0362791 	0.250377 	0 0.0361262 	0.250728 	0 0.0356812 	0.251658 	0 0.0351865 	0.252524 	0 0.0346924 	0.253379 	0 0.0341988 	0.254225 	0 0.0337073 	0.255059 	0 0.0333497 	0.255914 	0 0.0328358 	0.25658 	0 0.0323076 	0.257218 	0 0.0317795 	0.257847 	0 0.0312529 	0.258464 	0 0.0308542 	0.25911 	0 0.0304221 	0.259706 	0 0.0298593 	0.260137 	0 0.0292962 	0.260557 	0 0.028734 	0.260965 	0 0.0282941 	0.261407 	0 0.0278539 	0.26184 	0 0.0273244 	0.262153 	0 0.0267274 	0.262372 	0 0.0261309 	0.26258 	0 0.0256513 	0.262824 	0 0.0251711 	0.263058 	0 0.0246883 	0.26328 	0 0.0240599 	0.263308 	0 0.0234314 	0.263323 	0 0.0229147 	0.263374 	0 0.022397 	0.263415 	0 0.0218784 	0.263445 	0 0.0212863 	0.263372 	0 0.0206289 	0.263203 	0 0.0200781 	0.263066 	0 0.0195259 	0.262918 	0 0.0189725 	0.262759 	0 0.0184039 	0.262571 	0 0.0177206 	0.262225 	0 0.0171389 	0.261903 	0 0.0165555 	0.261571 	0 0.0159705 	0.261226 	0 0.0153839 	0.260871 	0 0.0147061 	0.260388 	0 0.0140965 	0.259887 	0 0.013485 	0.259372 	0 0.0128715 	0.258846 	0 0.012256 	0.258306 	0 0.0115866 	0.257691 	0 0.0109518 	0.25701 	0 0.0103148 	0.256317 	0 0.0096754 	0.25561 	0 0.00903367 	0.254889 	0 0.00836324 	0.254125 	0 0.00770551 	0.253267 	0 0.00704509 	0.252395 	0 0.00638196 	0.251509 	0 0.00571609 	0.250607 	0 0.00503674 	0.24968 	0 0.00435753 	0.248645 	0 0.00367522 	0.247594 	0 0.00298976 	0.246527 	0 0.00230113 	0.245444 	0 0.00160593 	0.244342 	0 0.000906017 	0.243127 	0 0.00020253 	0.241895 	0 -0.00050458 	0.240646 	0 -0.00121536 	0.239379 	0 -0.00193293 	0.238093 	0 -0.00265375 	0.236694 	0 -0.00337869 	0.235277 	0 -0.00410782 	0.233841 	0 -0.0048412 	0.232386 	0 -0.00558817 	0.230906 	0 -0.0063311 	0.229318 	0 -0.00707881 	0.22771 	0 -0.00783138 	0.226081 	0 -0.00858892 	0.22443 	0 -0.0093734 	0.22275 	0 -0.0101407 	0.220964 	0 -0.0109136 	0.219156 	0 -0.0116922 	0.217324 	0 -0.0124766 	0.215468 	0 -0.0133081 	0.213579 	0 -0.0141032 	0.211585 	0 -0.0149051 	0.209564 	0 -0.0157137 	0.207517 	0 -0.0165293 	0.205442 	0 -0.0174189 	0.203338 	0 -0.0182472 	0.201119 	0 -0.0190836 	0.198871 	0 -0.0199281 	0.196591 	0 -0.0207981 	0.194285 	0 -0.0217423 	0.191953 	0 -0.0226114 	0.18949 	0 -0.0234904 	0.186993 	0 -0.0243795 	0.184459 	0 -0.0253342 	0.181917 	0 -0.0263276 	0.179325 	0 -0.0272488 	0.176591 	0 -0.0281823 	0.173814 	0 -0.0291553 	0.171016 	0 -0.0301858 	0.168207 	0 -0.0312442 	0.165313 	0 -0.0322342 	0.162266 	0 -0.0332499 	0.159178 	0 -0.0343377 	0.156101 	0 -0.035444 	0.152965 	0 -0.0365927 	0.149703 	0 -0.0376223 	0.14646 	0 -0.0387247 	0.143247 	0 -0.0398481 	0.139972 	0 -0.0409936 	0.136629 	0 -0.0416696 	0.134656 	0 -0.0418378 	0.134163 	0 -0.0420065 	0.133668 	0 -0.0421756 	0.133172 	0 -0.0423465 	0.132678 	0 -0.0425241 	0.132196 	0 -0.0437498 	0.128538 	0 -0.0450029 	0.1248 	0 -0.046285 	0.120979 	0 -0.0476113 	0.117139 	0 -0.0490782 	0.113054 	0 -0.0504856 	0.108821 	0 -0.0519324 	0.10448 	0 -0.0534365 	0.100205 	0 -0.0549848 	0.0958262 	0 -0.0567934 	0.0907203 	0 -0.0570505 	0.0899535 	0 -0.057309 	0.0891858 	0 -0.0575679 	0.0884466 	0 -0.0578281 	0.0877041 	0 -0.058066 	0.0870257 	0 -0.0595334 	0.0829223 	0 -0.06104 	0.0787268 	0 -0.0625866 	0.0744415 	0 -0.0641569 	0.070265 	0 -0.0662481 	0.0647235 	0 -0.0669722 	0.0627339 	0 -0.0677043 	0.0607282 	0 -0.0684348 	0.0587527 	0 -0.0691622 	0.0568137 	0 -0.0697595 	0.0552261 	0 -0.0715031 	0.0507376 	0 -0.0732814 	0.0461954 	0 -0.0750444 	0.0417857 	0 -0.0768204 	0.0373936 	0 -0.0789793 	0.0320948 	0 -0.0793061 	0.0313117 	0 -0.0796265 	0.0305507 	0 -0.0799417 	0.0298076 	0 -0.0802573 	0.0290648 	0 -0.0806571 	0.028125 	0 -0.0818559 	0.0252454 	0 -0.0830589 	0.0223785 	0 -0.0842644 	0.0195277 	0 -0.0854579 	0.0167242 	0 -0.0864811 	0.0143289 	0 -0.087796 	0.0112492 	0 -0.0891086 	0.00820297 	0 -0.0904173 	0.00519295 	0 -0.0916799 	0.00230122 	0 -0.0928505 	-0.000367993 	0 -0.0939799 	-0.00304474 	0 -0.0951037 	-0.00568666 	0 -0.0962214 	-0.00829305 	0 -0.0973037 	-0.01081 	0 -0.0983481 	-0.0132396 	0 -0.0993145 	-0.015668 	0 -0.100276 	-0.0180648 	0 -0.101231 	-0.02043 	0 -0.102181 	-0.0227638 	0 -0.103128 	-0.0250952 	0 -0.103361 	-0.0257412 	0 -0.103593 	-0.026385 	0 -0.103825 	-0.0270265 	0 -0.104056 	-0.0276657 	0 -0.104241 	-0.0281749 	0 -0.104805 	-0.0298199 	0 -0.105366 	-0.0314509 	0 -0.105923 	-0.0330681 	0 -0.106477 	-0.0346714 	0 -0.107048 	-0.0363213 	0 -0.107716 	-0.0386108 	0 -0.108358 	-0.0408315 	0 -0.108962 	-0.0429492 	0 -0.109561 	-0.0450447 	0 -0.110191 	-0.0472427 	0 -0.110661 	-0.0493055 	0 -0.111126 	-0.0513463 	0 -0.111588 	-0.0533655 	0 -0.112046 	-0.0553633 	0 -0.112373 	-0.0567837 	0 -0.11242 	-0.0570346 	0 -0.112466 	-0.0572851 	0 -0.112513 	-0.0575353 	0 -0.11256 	-0.0577852 	0 -0.112607 	-0.0580368 	0 -0.11286 	-0.0602234 	0 -0.113084 	-0.0623225 	0 -0.113305 	-0.0644024 	0 -0.113522 	-0.0664632 	0 -0.113751 	-0.0686593 	0 -0.113788 	-0.070017 	0 -0.113824 	-0.0713659 	0 -0.113858 	-0.0727061 	0 -0.113892 	-0.0740377 	0 -0.11392 	-0.0751872 	0 -0.1139 	-0.0760144 	0 -0.11388 	-0.0768387 	0 -0.113859 	-0.07766 	0 -0.113837 	-0.0784784 	0 -0.113814 	-0.0793219 	0 -0.113567 	-0.0814877 	0 -0.113317 	-0.0836316 	0 -0.113063 	-0.0857537 	0 -0.112806 	-0.0878541 	0 -0.112517 	-0.0901292 	0 -0.112512 	-0.090149 	0 -0.112507 	-0.0901687 	0 -0.112502 	-0.0901885 	0 -0.112497 	-0.0902083 	0 -0.112492 	-0.090228 	0 -0.111891 	-0.0923914 	0 -0.111289 	-0.0945406 	0 -0.110688 	-0.0966754 	0 -0.110085 	-0.0987956 	0 -0.10941 	-0.101155 	0 -0.109261 	-0.101514 	0 -0.109111 	-0.101872 	0 -0.108961 	-0.10223 	0 -0.108812 	-0.102588 	0 -0.108666 	-0.102936 	0 -0.107861 	-0.104873 	0 -0.107058 	-0.1068 	0 -0.106256 	-0.108717 	0 -0.105456 	-0.110624 	0 -0.104554 	-0.112769 	0 -0.104354 	-0.11312 	0 -0.104154 	-0.11347 	0 -0.103954 	-0.11382 	0 -0.103755 	-0.11417 	0 -0.10356 	-0.114512 	0 -0.102435 	-0.116625 	0 -0.101316 	-0.118729 	0 -0.100202 	-0.120824 	0 -0.0990946 	-0.122911 	0 -0.0978032 	-0.125345 	0 -0.0977898 	-0.125364 	0 -0.0977764 	-0.125384 	0 -0.0977631 	-0.125403 	0 -0.0977497 	-0.125422 	0 -0.0977364 	-0.125441 	0 -0.0964006 	-0.127471 	0 -0.095065 	-0.129472 	0 -0.0937359 	-0.13146 	0 -0.0924132 	-0.133433 	0 -0.0912327 	-0.135191 	0 -0.0907615 	-0.135981 	0 -0.0902913 	-0.136769 	0 -0.089822 	-0.137556 	0 -0.0893537 	-0.138341 	0 -0.08885 	-0.139186 	0 -0.0880233 	-0.140268 	0 -0.0872002 	-0.141348 	0 -0.0863806 	-0.142426 	0 -0.0855645 	-0.143501 	0 -0.0847903 	-0.144523 	0 -0.0835385 	-0.146458 	0 -0.0822965 	-0.148387 	0 -0.0810644 	-0.150311 	0 -0.0798422 	-0.152229 	0 -0.0786521 	-0.153884 	0 -0.0784953 	-0.154129 	0 -0.0783385 	-0.154375 	0 -0.0781819 	-0.154621 	0 -0.0780253 	-0.154866 	0 -0.0778644 	-0.155118 	0 -0.0767461 	-0.156486 	0 -0.0756345 	-0.157849 	0 -0.0745297 	-0.159209 	0 -0.0734315 	-0.160565 	0 -0.0723879 	-0.161858 	0 -0.0712494 	-0.163588 	0 -0.0701197 	-0.165315 	0 -0.068999 	-0.167037 	0 -0.0678467 	-0.168671 	0 -0.0666793 	-0.170087 	0 -0.0662366 	-0.170754 	0 -0.0657949 	-0.171419 	0 -0.0653543 	-0.172083 	0 -0.0649148 	-0.172746 	0 -0.0644349 	-0.17347 	0 -0.0637672 	-0.174241 	0 -0.0631021 	-0.175012 	0 -0.0624397 	-0.175783 	0 -0.0617799 	-0.176553 	0 -0.0611341 	-0.177309 	0 -0.0601408 	-0.178812 	0 -0.0591033 	-0.18021 	0 -0.0579941 	-0.181448 	0 -0.0568906 	-0.182681 	0 -0.0558202 	-0.183879 	0 -0.0548687 	-0.185281 	0 -0.0539227 	-0.186679 	0 -0.0529822 	-0.188073 	0 -0.0520195 	-0.189407 	0 -0.0509709 	-0.190492 	0 -0.0503777 	-0.191314 	0 -0.0497861 	-0.192133 	0 -0.0491961 	-0.192949 	0 -0.0486077 	-0.193762 	0 -0.047929 	-0.1947 	0 -0.0476102 	-0.195027 	0 -0.0472919 	-0.195354 	0 -0.0469742 	-0.195681 	0 -0.0466569 	-0.196008 	0 -0.0463417 	-0.196334 	0 -0.0454741 	-0.197363 	0 -0.0445321 	-0.198237 	0 -0.0435937 	-0.199108 	0 -0.0426588 	-0.199977 	0 -0.0417389 	-0.200832 	0 -0.0409638 	-0.201878 	0 -0.0401805 	-0.202899 	0 -0.0392612 	-0.203644 	0 -0.0383444 	-0.204384 	0 -0.0374387 	-0.205113 	0 -0.0366793 	-0.206023 	0 -0.0359221 	-0.206929 	0 -0.0351672 	-0.207831 	0 -0.0342721 	-0.208451 	0 -0.0333762 	-0.209042 	0 -0.0326253 	-0.209802 	0 -0.0318759 	-0.210556 	0 -0.0311278 	-0.211306 	0 -0.0303804 	-0.212049 	0 -0.0294899 	-0.212495 	0 -0.028741 	-0.213093 	0 -0.0279927 	-0.213686 	0 -0.0272451 	-0.214272 	0 -0.0264982 	-0.214851 	0 -0.0257217 	-0.215358 	0 -0.0254669 	-0.215503 	0 -0.025212 	-0.215647 	0 -0.0249572 	-0.21579 	0 -0.0247024 	-0.215933 	0 -0.0244199 	-0.21609 	0 -0.0239154 	-0.216252 	0 -0.0234112 	-0.216413 	0 -0.0229073 	-0.216573 	0 -0.0224037 	-0.216732 	0 -0.0219017 	-0.21689 	0 -0.0211868 	-0.217114 	0 -0.020408 	-0.217216 	0 -0.0196293 	-0.217314 	0 -0.0188506 	-0.21741 	0 -0.0180746 	-0.217502 	0 -0.0174289 	-0.217713 	0 -0.0166365 	-0.217659 	0 -0.0158434 	-0.217602 	0 -0.0150499 	-0.21754 	0 -0.0142578 	-0.217474 	0 -0.0136085 	-0.217536 	0 -0.0128421 	-0.217399 	0 -0.0120273 	-0.217177 	0 -0.0112113 	-0.21695 	0 -0.0103958 	-0.216717 	0 -0.00971822 	-0.216589 	0 -0.00896946 	-0.216348 	0 -0.00812481 	-0.215955 	0 -0.00727835 	-0.215554 	0 -0.0064313 	-0.215147 	0 -0.00571712 	-0.214818 	0 -0.00496097 	-0.214427 	0 -0.004078 	-0.213853 	0 -0.00319248 	-0.213272 	0 -0.00230516 	-0.212683 	0 -0.00154563 	-0.212141 	0 -0.000756668 	-0.211558 	0 0.000173617 	-0.210798 	0 0.00110733 	-0.210027 	0 0.00204431 	-0.209247 	0 0.00285841 	-0.208481 	0 0.00370661 	-0.207674 	0 0.00469415 	-0.206718 	0 0.00568617 	-0.20575 	0 0.00668341 	-0.20477 	0 0.00756235 	-0.203769 	0 0.00849841 	-0.202713 	0 0.0095548 	-0.201551 	0 0.010617 	-0.200376 	0 0.0116871 	-0.199185 	0 0.0126428 	-0.197934 	0 0.0136989 	-0.196615 	0 0.0148377 	-0.195237 	0 0.0159839 	-0.193844 	0 0.0171421 	-0.192429 	0 0.0181885 	-0.190913 	0 0.0194015 	-0.18933 	0 0.0206384 	-0.187724 	0 0.021885 	-0.1861 	0 0.0231499 	-0.184445 	0 0.0243754 	-0.182644 	0 0.025717 	-0.180818 	0 0.0270709 	-0.17897 	0 0.0284372 	-0.1771 	0 0.0294208 	-0.175751 	0 0.029502 	-0.17563 	0 0.0295832 	-0.175508 	0 0.0296644 	-0.175386 	0 0.0297457 	-0.175264 	0 0.029833 	-0.175147 	0 0.0312585 	-0.172969 	0 0.0326971 	-0.17076 	0 0.0341493 	-0.16852 	0 0.0356153 	-0.166248 	0 0.0372421 	-0.164018 	0 0.0388063 	-0.161543 	0 0.0403875 	-0.159033 	0 0.041986 	-0.156486 	0 0.0437159 	-0.154053 	0 0.0455561 	-0.151547 	0 0.047288 	-0.148747 	0 0.0490417 	-0.145907 	0 0.0509602 	-0.143255 	0 0.0529153 	-0.140583 	0 0.0550046 	-0.13772 	0 0.0560057 	-0.136091 	0 0.0570634 	-0.134541 	0 0.0581653 	-0.133047 	0 0.0592752 	-0.131544 	0 0.0601242 	-0.130393 	0 0.0611909 	-0.128779 	0 0.0622637 	-0.127152 	0 0.0633427 	-0.125513 	0 0.0644695 	-0.123966 	0 0.0656979 	-0.122394 	0 0.067911 	-0.119049 	0 0.0701506 	-0.115662 	0 0.0725028 	-0.112464 	0 0.0749438 	-0.109395 	0 0.0778137 	-0.105783 	0 0.0782929 	-0.105069 	0 0.0787733 	-0.104353 	0 0.0792834 	-0.103716 	0 0.0797983 	-0.103088 	0 0.0802729 	-0.10251 	0 0.0823426 	-0.0995911 	0 0.0844238 	-0.096652 	0 0.08654 	-0.0937703 	0 0.0887619 	-0.0911715 	0 0.0915325 	-0.087924 	0 0.0923181 	-0.086836 	0 0.0931049 	-0.0857476 	0 0.0939149 	-0.0847265 	0 0.0947532 	-0.083788 	0 0.0955129 	-0.0829382 	0 0.0976371 	-0.0800622 	0 0.0997598 	-0.0771826 	0 0.101959 	-0.074566 	0 0.104191 	-0.0720777 	0 0.107268 	-0.0686402 	0 0.107352 	-0.0685308 	0 0.107435 	-0.0684214 	0 0.107518 	-0.0683121 	0 0.107606 	-0.0682186 	0 0.107694 	-0.0681266 	0 0.109641 	-0.0654786 	0 0.11158 	-0.062838 	0 0.113508 	-0.0602066 	0 0.115535 	-0.057976 	0 0.117265 	-0.0560707 	0 0.118617 	-0.0540486 	0 0.119984 	-0.0521415 	0 0.121379 	-0.0504191 	0 0.122764 	-0.0486999 	0 0.124732 	-0.0462402 	0 0.124807 	-0.046131 	0 0.124882 	-0.0460218 	0 0.124957 	-0.0459127 	0 0.125033 	-0.04581 	0 0.125113 	-0.0457196 	0 0.126288 	-0.0436933 	0 0.127452 	-0.0416732 	0 0.128604 	-0.0396597 	0 0.129771 	-0.0377742 	0 0.130903 	-0.0361933 	0 0.131774 	-0.0342018 	0 0.132632 	-0.0322138 	0 0.133495 	-0.0303603 	0 0.134371 	-0.0286848 	0 0.135201 	-0.0270749 	0 0.135767 	-0.0250517 	0 0.136323 	-0.0231161 	0 0.136879 	-0.0213887 	0 0.137422 	-0.0196604 	0 0.137938 	-0.0179755 	0 0.13819 	-0.0158749 	0 0.138424 	-0.0140445 	0 0.138643 	-0.0122256 	0 0.138849 	-0.0104038 	0 0.139038 	-0.00860742 	0 0.138958 	-0.00649845 	0 0.138848 	-0.00456245 	0 0.138724 	-0.00262111 	0 0.138585 	-0.000674775 	0 0.138433 	0.00126483 	0 0.138005 	0.00347967 	0 0.137543 	0.0055626 	0 0.137066 	0.00765334 	0 0.136573 	0.00975147 	0 0.136063 	0.0118672 	0 0.135291 	0.0143173 	0 0.134467 	0.0165757 	0 0.133627 	0.0188446 	0 0.132773 	0.0211237 	0 0.131886 	0.0234589 	0 0.130756 	0.0261549 	0 0.129592 	0.0287743 	0 0.128381 	0.0312577 	0 0.127158 	0.0337541 	0 0.125867 	0.0363746 	0 0.124353 	0.0393015 	0 0.122827 	0.0422377 	0 0.121289 	0.0451815 	0 0.119725 	0.0480686 	0 0.117989 	0.0510821 	0 0.117252 	0.0523255 	0 0.116514 	0.0535702 	0 0.115775 	0.0548162 	0 0.115037 	0.0560633 	0 0.11447 	0.0570205 	0 0.113221 	0.0592004 	0 0.111971 	0.0613846 	0 0.110722 	0.0635723 	0 0.109474 	0.0657626 	0 0.108092 	0.0681924 	0 0.105821 	0.0720878 	0 0.103562 	0.0759766 	0 0.101318 	0.0798541 	0 0.0990911 	0.0837157 	0 0.0975736 	0.0863568 	0 0.0973232 	0.0868228 	0 0.0970732 	0.0872885 	0 0.0968235 	0.0877539 	0 0.0965741 	0.0882191 	0 0.0963163 	0.0887004 	0 0.0937512 	0.0933409 	0 0.0912282 	0.0979428 	0 0.0887497 	0.102501 	0 0.0863174 	0.10701 	0 0.084735 	0.109967 	0 0.084342 	0.110778 	0 0.0839505 	0.111587 	0 0.0835607 	0.112395 	0 0.0831724 	0.1132 	0 0.0827559 	0.114067 	0 0.0810491 	0.117486 	0 0.0793742 	0.120873 	0 0.0777308 	0.124227 	0 0.0761184 	0.127549 	0 0.074772 	0.130349 	0 0.0734377 	0.133513 	0 0.07213 	0.136649 	0 0.0708484 	0.139759 	0 0.0695921 	0.142841 	0 0.0679345 	0.146954 	0 0.0677705 	0.147348 	0 0.0676069 	0.147743 	0 0.0674438 	0.148136 	0 0.067281 	0.14853 	0 0.0671202 	0.148919 	0 0.0658189 	0.152399 	0 0.0644985 	0.155774 	0 0.0632058 	0.159113 	0 0.0619396 	0.162415 	0 0.0607774 	0.165477 	0 0.0597835 	0.168687 	0 0.0588113 	0.171869 	0 0.0578599 	0.175024 	0 0.0568716 	0.178077 	0 0.0558624 	0.180888 	0 0.0553537 	0.182674 	0 0.0548506 	0.184449 	0 0.0543529 	0.186215 	0 0.0538607 	0.187972 	0 0.0532859 	0.190035 	0 0.0530041 	0.191007 	0 0.0527239 	0.191976 	0 0.0524454 	0.192943 	0 0.0521686 	0.193908 	0 0.0518954 	0.194862 	0 0.0512809 	0.197484 	0 0.0505678 	0.199972 	0 0.0498645 	0.202442 	0 0.0491707 	0.204892 	0 0.0484971 	0.207286 	0 0.0480176 	0.209695 	0 0.0475457 	0.212089 	0 0.0469555 	0.214339 	0 0.0463221 	0.216521 	0 0.0457018 	0.218663 	0 0.0452683 	0.22081 	0 0.04484 	0.222944 	0 0.0444168 	0.225065 	0 0.0439272 	0.227101 	0 0.0433339 	0.228993 	0 0.042919 	0.230885 	0 0.0425077 	0.232765 	0 0.0420999 	0.234633 	0 0.0416956 	0.23649 	0 0.0412511 	0.238278 	0 0.041154 	0.238661 	0 0.0410571 	0.239043 	0 0.0409603 	0.239424 	0 0.0408637 	0.239805 	0 0.0407634 	0.2402 	0 0.0404465 	0.241359 	0 0.0401309 	0.242513 	0 0.0398168 	0.243661 	0 0.039504 	0.244805 	0 0.0391937 	0.24594 	0 0.0388986 	0.247372 	0 0.0384657 	0.248656 	0 0.0380345 	0.249931 	0 0.0376049 	0.251198 	0 0.0371784 	0.252451 	0 0.0369001 	0.253708 	0 0.0365586 	0.254891 	0 0.0360995 	0.255939 	0 0.0356414 	0.256979 	0 0.0351858 	0.258008 	0 0.0348708 	0.259049 	0 0.0345566 	0.260083 	0 0.0341455 	0.261002 	0 0.0336538 	0.261823 	0 0.0331639 	0.262632 	0 0.032808 	0.263463 	0 0.0324525 	0.264287 	0 0.0320975 	0.265104 	0 0.0316012 	0.265749 	0 0.0310749 	0.266348 	0 0.0306766 	0.266975 	0 0.0302784 	0.267594 	0 0.0298803 	0.268206 	0 0.0294551 	0.268778 	0 0.0288926 	0.269173 	0 0.0284525 	0.269602 	0 0.0280121 	0.270023 	0 0.0275715 	0.270435 	0 0.0271306 	0.27084 	0 0.0266003 	0.271123 	0 0.0261203 	0.27136 	0 0.0256398 	0.271588 	0 0.0251587 	0.271807 	0 0.0246771 	0.272017 	0 0.0241885 	0.272209 	0 0.024137 	0.272214 	0 0.0240854 	0.272219 	0 0.0240339 	0.272224 	0 0.0239823 	0.272228 	0 0.0239296 	0.272233 	0 0.0234592 	0.272198 	0 0.0229882 	0.272156 	0 0.0225165 	0.272109 	0 0.0220442 	0.272055 	0 0.0215719 	0.271995 	0 0.0210739 	0.271877 	0 0.0205176 	0.271664 	0 0.0199602 	0.271442 	0 0.0194017 	0.271211 	0 0.0188429 	0.270973 	0 0.018366 	0.270771 	0 0.0177804 	0.270391 	0 0.0171933 	0.270002 	0 0.0166048 	0.269604 	0 0.0160156 	0.269197 	0 0.0155311 	0.268863 	0 0.014939 	0.268351 	0 0.0143257 	0.267799 	0 0.0137106 	0.267236 	0 0.0130945 	0.266663 	0 0.0125813 	0.266158 	0 0.0119987 	0.265536 	0 0.0113621 	0.264822 	0 0.0107235 	0.264097 	0 0.0100832 	0.263362 	0 0.0095443 	0.262684 	0 0.00896356 	0.261935 	0 0.00830613 	0.26106 	0 0.00764615 	0.260174 	0 0.00698412 	0.259275 	0 0.0064218 	0.258424 	0 0.00583596 	0.25753 	0 0.00515922 	0.256494 	0 0.00447953 	0.255445 	0 0.00379721 	0.254384 	0 0.00321313 	0.253355 	0 0.0026156 	0.252299 	0 0.00192039 	0.251101 	0 0.00122176 	0.249888 	0 0.000519861 	0.24866 	0 -8.51381e-05 	0.24745 	0 -0.000701058 	0.246217 	0 -0.00141486 	0.244852 	0 -0.00213262 	0.24347 	0 -0.00285444 	0.242073 	0 -0.00348047 	0.240676 	0 -0.00412195 	0.239252 	0 -0.00485543 	0.237714 	0 -0.00559351 	0.236158 	0 -0.00633662 	0.234584 	0 -0.00698496 	0.232994 	0 -0.00766024 	0.231365 	0 -0.00841541 	0.229647 	0 -0.00917596 	0.227909 	0 -0.00994278 	0.226149 	0 -0.0106161 	0.224355 	0 -0.0113348 	0.222511 	0 -0.0121149 	0.220602 	0 -0.0129012 	0.218671 	0 -0.0136955 	0.216713 	0 -0.0143982 	0.214705 	0 -0.0151714 	0.212635 	0 -0.0159808 	0.210522 	0 -0.0167979 	0.208384 	0 -0.0176252 	0.206212 	0 -0.0183675 	0.203973 	0 -0.019204 	0.201669 	0 -0.0200496 	0.199337 	0 -0.0209043 	0.196974 	0 -0.0217727 	0.194569 	0 -0.0225984 	0.192071 	0 -0.0234781 	0.189532 	0 -0.0243689 	0.186958 	0 -0.0252711 	0.184348 	0 -0.0257812 	0.182871 	0 -0.0258631 	0.182628 	0 -0.0259451 	0.182385 	0 -0.0260271 	0.182142 	0 -0.0261093 	0.181898 	0 -0.0261955 	0.181658 	0 -0.0271026 	0.178879 	0 -0.0280224 	0.176059 	0 -0.0289552 	0.173197 	0 -0.0299015 	0.170291 	0 -0.0309197 	0.167359 	0 -0.0318915 	0.164289 	0 -0.0328795 	0.161168 	0 -0.0338843 	0.157996 	0 -0.0349364 	0.154818 	0 -0.0360543 	0.151566 	0 -0.0371157 	0.148147 	0 -0.0381987 	0.144665 	0 -0.0393268 	0.141174 	0 -0.040502 	0.137672 	0 -0.0417427 	0.133977 	0 -0.0429347 	0.130115 	0 -0.0441776 	0.126261 	0 -0.0454641 	0.122372 	0 -0.0467845 	0.11839 	0 -0.0482254 	0.114054 	0 -0.0482452 	0.113991 	0 -0.0482652 	0.113928 	0 -0.0482853 	0.113867 	0 -0.0483054 	0.113806 	0 -0.0483253 	0.113745 	0 -0.0496622 	0.109662 	0 -0.0510365 	0.105481 	0 -0.0524507 	0.101197 	0 -0.0539041 	0.096914 	0 -0.0555845 	0.0920818 	0 -0.0570007 	0.0878124 	0 -0.0584562 	0.0834661 	0 -0.0599309 	0.0792031 	0 -0.06145 	0.074836