# vtk DataFile Version 2.0
track0
ASCII
DATASET POLYDATA
POINTS 19293 float
1.11022e-18 0.5 1.11022e-18
0.391304 0.5 1.11022e-18
0.391043 0.49946 1.11022e-18
0.390786 0.498919 1.11022e-18
0.390531 0.498377 1.11022e-18
0.39028 0.497832 1.11022e-18
0.39 0.497219 1.11022e-18
0.389353 0.495775 1.11022e-18
0.388728 0.494322 1.11022e-18
0.388123 0.49286 1.11022e-18
0.387538 0.49139 1.11022e-18
0.387008 0.49 1.11022e-18
0.386273 0.488 1.11022e-18
0.385571 0.485988 1.11022e-18
0.384902 0.483965 1.11022e-18
0.384265 0.481932 1.11022e-18
0.383693 0.48 1.11022e-18
0.383133 0.478 1.11022e-18
0.3826 0.475993 1.11022e-18
0.382094 0.473978 1.11022e-18
0.381615 0.471958 1.11022e-18
0.381176 0.47 1.11022e-18
0.380941 0.468884 1.11022e-18
0.380713 0.467766 1.11022e-18
0.380492 0.466647 1.11022e-18
0.380279 0.465527 1.11022e-18
0.38 0.464011 1.11022e-18
0.379859 0.463209 1.11022e-18
0.379723 0.462406 1.11022e-18
0.379589 0.461603 1.11022e-18
0.379459 0.460799 1.11022e-18
0.379334 0.46 1.11022e-18
0.379029 0.458 1.11022e-18
0.378744 0.455997 1.11022e-18
0.378479 0.453991 1.11022e-18
0.378235 0.451983 1.11022e-18
0.378014 0.45 1.11022e-18
0.377812 0.448 1.11022e-18
0.377626 0.445998 1.11022e-18
0.37746 0.443995 1.11022e-18
0.377312 0.44199 1.11022e-18
0.377185 0.44 1.11022e-18
0.377075 0.438 1.11022e-18
0.376982 0.435999 1.11022e-18
0.376907 0.433998 1.11022e-18
0.376849 0.431995 1.11022e-18
0.37681 0.43 1.11022e-18
0.376789 0.428 1.11022e-18
0.376784 0.426 1.11022e-18
0.376796 0.424 1.11022e-18
0.376826 0.422 1.11022e-18
0.376875 0.42 1.11022e-18
0.376941 0.418 1.11022e-18
0.377024 0.416001 1.11022e-18
0.377125 0.414002 1.11022e-18
0.377244 0.412004 1.11022e-18
0.377382 0.41 1.11022e-18
0.377539 0.408 1.11022e-18
0.377714 0.406001 1.11022e-18
0.377908 0.404005 1.11022e-18
0.378121 0.40201 1.11022e-18
0.378357 0.4 1.11022e-18
0.378613 0.398 1.11022e-18
0.378889 0.396003 1.11022e-18
0.379186 0.394008 1.11022e-18
0.379506 0.392018 1.11022e-18
0.379853 0.39 1.11022e-18
0.379882 0.38984 1.11022e-18
0.379912 0.38968 1.11022e-18
0.379942 0.389521 1.11022e-18
0.379971 0.389361 1.11022e-18
0.38 0.389209 1.11022e-18
0.380348 0.387368 1.11022e-18
0.380717 0.38553 1.11022e-18
0.381107 0.383696 1.11022e-18
0.381519 0.381867 1.11022e-18
0.381963 0.38 1.11022e-18
0.382466 0.378 1.11022e-18
0.382998 0.376007 1.11022e-18
0.38356 0.374023 1.11022e-18
0.384151 0.372047 1.11022e-18
0.384801 0.37 1.11022e-18
0.385475 0.368 1.11022e-18
0.386185 0.366012 1.11022e-18
0.386932 0.364038 1.11022e-18
0.387718 0.36208 1.11022e-18
0.388605 0.36 1.11022e-18
0.388884 0.359385 1.11022e-18
0.389167 0.358773 1.11022e-18
0.389455 0.358162 1.11022e-18
0.389748 0.357554 1.11022e-18
0.39 0.357041 1.11022e-18
0.390703 0.355632 1.11022e-18
0.391431 0.354237 1.11022e-18
0.392184 0.352856 1.11022e-18
0.392964 0.351489 1.11022e-18
0.393854 0.35 1.11022e-18
0.395083 0.348046 1.11022e-18
0.396374 0.346132 1.11022e-18
0.397728 0.344263 1.11022e-18
0.399148 0.342443 1.11022e-18
0.4 0.341433 1.11022e-18
0.400252 0.341146 1.11022e-18
0.400507 0.340861 1.11022e-18
0.400763 0.340578 1.11022e-18
0.401021 0.340296 1.11022e-18
0.401295 0.34 1.11022e-18
0.403036 0.338147 1.11022e-18
0.404857 0.336373 1.11022e-18
0.406756 0.334684 1.11022e-18
0.408734 0.333086 1.11022e-18
0.41 0.332162 1.11022e-18
0.410633 0.33173 1.11022e-18
0.411272 0.331307 1.11022e-18
0.411917 0.330893 1.11022e-18
0.412568 0.330488 1.11022e-18
0.41338 0.33 1.11022e-18
0.414704 0.329236 1.11022e-18
0.41605 0.328512 1.11022e-18
0.417417 0.327828 1.11022e-18
0.418804 0.327185 1.11022e-18
0.42 0.326673 1.11022e-18
0.422 0.325875 1.11022e-18
0.42403 0.325157 1.11022e-18
0.426086 0.324518 1.11022e-18
0.428165 0.323958 1.11022e-18
0.43 0.323536 1.11022e-18
0.432 0.323142 1.11022e-18
0.434012 0.322814 1.11022e-18
0.436033 0.322548 1.11022e-18
0.438061 0.322345 1.11022e-18
0.44 0.322207 1.11022e-18
0.442 0.322121 1.11022e-18
0.444002 0.322089 1.11022e-18
0.446003 0.322107 1.11022e-18
0.448004 0.322176 1.11022e-18
0.45 0.322292 1.11022e-18
0.452 0.322456 1.11022e-18
0.453996 0.322666 1.11022e-18
0.455986 0.32292 1.11022e-18
0.457971 0.323215 1.11022e-18
0.46 0.32356 1.11022e-18
0.462 0.323942 1.11022e-18
0.463992 0.324365 1.11022e-18
0.465975 0.324827 1.11022e-18
0.467949 0.325326 1.11022e-18
0.47 0.325885 1.11022e-18
0.472 0.32647 1.11022e-18
0.473989 0.327092 1.11022e-18
0.475966 0.327751 1.11022e-18
0.477931 0.328445 1.11022e-18
0.48 0.329216 1.11022e-18
0.480398 0.329373 1.11022e-18
0.480796 0.329531 1.11022e-18
0.481193 0.329691 1.11022e-18
0.48159 0.329852 1.11022e-18
0.481951 0.33 1.11022e-18
0.483561 0.330666 1.11022e-18
0.485161 0.331355 1.11022e-18
0.486751 0.332067 1.11022e-18
0.48833 0.332802 1.11022e-18
0.49 0.333609 1.11022e-18
0.492 0.334611 1.11022e-18
0.493981 0.335651 1.11022e-18
0.495942 0.336728 1.11022e-18
0.497883 0.33784 1.11022e-18
0.5 0.339105 1.11022e-18
0.500287 0.339284 1.11022e-18
0.500573 0.339464 1.11022e-18
0.500859 0.339644 1.11022e-18
0.501144 0.339826 1.11022e-18
0.501416 0.34 1.11022e-18
0.503133 0.341105 1.11022e-18
0.50483 0.342238 1.11022e-18
0.506508 0.343401 1.11022e-18
0.508166 0.344593 1.11022e-18
0.51 0.345958 1.11022e-18
0.511044 0.346767 1.11022e-18
0.512078 0.347587 1.11022e-18
0.513103 0.348419 1.11022e-18
0.514119 0.349262 1.11022e-18
0.514988 0.35 1.11022e-18
0.51599 0.350868 1.11022e-18
0.516983 0.351748 1.11022e-18
0.517965 0.352639 1.11022e-18
0.518937 0.353541 1.11022e-18
0.52 0.35455 1.11022e-18
0.52112 0.35564 1.11022e-18
0.522224 0.356745 1.11022e-18
0.523313 0.357865 1.11022e-18
0.524387 0.359 1.11022e-18
0.525308 0.36 1.11022e-18
0.526246 0.361044 1.11022e-18
0.527172 0.362099 1.11022e-18
0.528084 0.363165 1.11022e-18
0.528984 0.364242 1.11022e-18
0.53 0.36549 1.11022e-18
0.530714 0.366392 1.11022e-18
0.53142 0.367301 1.11022e-18
0.532116 0.368217 1.11022e-18
0.532803 0.36914 1.11022e-18
0.53343 0.37 1.11022e-18
0.534744 0.371838 1.11022e-18
0.536022 0.373701 1.11022e-18
0.537264 0.375588 1.11022e-18
0.538471 0.377498 1.11022e-18
0.539985 0.38 1.11022e-18
0.539988 0.380005 1.11022e-18
0.539991 0.380011 1.11022e-18
0.539994 0.380016 1.11022e-18
0.539997 0.380021 1.11022e-18
0.54 0.380026 1.11022e-18
0.541142 0.382021 1.11022e-18
0.542246 0.384037 1.11022e-18
0.543313 0.386073 1.11022e-18
0.544342 0.388128 1.11022e-18
0.545237 0.39 1.11022e-18
0.546153 0.392 1.11022e-18
0.547036 0.394015 1.11022e-18
0.547885 0.396045 1.11022e-18
0.5487 0.398088 1.11022e-18
0.549427 0.4 1.11022e-18
0.549541 0.400316 1.11022e-18
0.549655 0.400632 1.11022e-18
0.549768 0.400949 1.11022e-18
0.549881 0.401266 1.11022e-18
0.55 0.401605 1.11022e-18
0.550586 0.403284 1.11022e-18
0.55115 0.40497 1.11022e-18
0.551693 0.406664 1.11022e-18
0.552214 0.408364 1.11022e-18
0.552694 0.41 1.11022e-18
0.553254 0.412 1.11022e-18
0.553787 0.414008 1.11022e-18
0.554291 0.416022 1.11022e-18
0.554767 0.418044 1.11022e-18
0.555198 0.42 1.11022e-18
0.55561 0.422 1.11022e-18
0.555995 0.424005 1.11022e-18
0.556353 0.426015 1.11022e-18
0.556685 0.42803 1.11022e-18
0.556982 0.43 1.11022e-18
0.557255 0.432 1.11022e-18
0.557502 0.434003 1.11022e-18
0.557722 0.43601 1.11022e-18
0.557916 0.438019 1.11022e-18
0.55808 0.44 1.11022e-18
0.558219 0.442 1.11022e-18
0.55833 0.444002 1.11022e-18
0.558414 0.446005 1.11022e-18
0.558471 0.448009 1.11022e-18
0.5585 0.45 1.11022e-18
0.5585 0.452 1.11022e-18
0.558472 0.454 1.11022e-18
0.558415 0.455999 1.11022e-18
0.55833 0.457997 1.11022e-18
0.558214 0.46 1.11022e-18
0.558068 0.462 1.11022e-18
0.55789 0.463998 1.11022e-18
0.557682 0.465992 1.11022e-18
0.557442 0.467983 1.11022e-18
0.557165 0.47 1.11022e-18
0.556854 0.472 1.11022e-18
0.55651 0.473994 1.11022e-18
0.55613 0.475982 1.11022e-18
0.555715 0.477963 1.11022e-18
0.555248 0.48 1.11022e-18
0.554746 0.482 1.11022e-18
0.554205 0.48399 1.11022e-18
0.553624 0.485968 1.11022e-18
0.553002 0.487934 1.11022e-18
0.552297 0.49 1.11022e-18
0.551837 0.491249 1.11022e-18
0.55136 0.492492 1.11022e-18
0.550864 0.493728 1.11022e-18
0.55035 0.494955 1.11022e-18
0.55 0.495756 1.11022e-18
0.549618 0.496605 1.11022e-18
0.549228 0.497449 1.11022e-18
0.548828 0.49829 1.11022e-18
0.548419 0.499126 1.11022e-18
0.54798 0.5 1.11022e-18
0.546945 0.502 1.11022e-18
0.545856 0.503971 1.11022e-18
0.544712 0.505911 1.11022e-18
0.543515 0.507818 1.11022e-18
0.542057 0.51 1.11022e-18
0.541645 0.510573 1.11022e-18
0.541229 0.511141 1.11022e-18
0.540807 0.511706 1.11022e-18
0.54038 0.512268 1.11022e-18
0.54 0.512758 1.11022e-18
0.538859 0.514206 1.11022e-18
0.537683 0.515628 1.11022e-18
0.536475 0.51702 1.11022e-18
0.535233 0.518384 1.11022e-18
0.533692 0.52 1.11022e-18
0.532953 0.520732 1.11022e-18
0.532205 0.521453 1.11022e-18
0.531448 0.522165 1.11022e-18
0.530681 0.522867 1.11022e-18
0.53 0.523475 1.11022e-18
0.528504 0.52478 1.11022e-18
0.526977 0.526048 1.11022e-18
0.525419 0.527279 1.11022e-18
0.523833 0.528473 1.11022e-18
0.521705 0.53 1.11022e-18
0.521364 0.53023 1.11022e-18
0.521022 0.530457 1.11022e-18
0.520679 0.530684 1.11022e-18
0.520334 0.530908 1.11022e-18
0.52 0.531125 1.11022e-18
0.518 0.532406 1.11022e-18
0.515967 0.533634 1.11022e-18
0.513903 0.534809 1.11022e-18
0.511809 0.535931 1.11022e-18
0.51 0.536847 1.11022e-18
0.50869 0.537477 1.11022e-18
0.50737 0.538088 1.11022e-18
0.506042 0.53868 1.11022e-18
0.504705 0.539253 1.11022e-18
0.502896 0.54 1.11022e-18
0.502317 0.540227 1.11022e-18
0.501737 0.540451 1.11022e-18
0.501155 0.540671 1.11022e-18
0.500571 0.540888 1.11022e-18
0.5 0.541096 1.11022e-18
0.498 0.541816 1.11022e-18
0.495986 0.542496 1.11022e-18
0.49396 0.543136 1.11022e-18
0.491921 0.543737 1.11022e-18
0.49 0.544267 1.11022e-18
0.488 0.544783 1.11022e-18
0.485991 0.545262 1.11022e-18
0.483973 0.545704 1.11022e-18
0.481948 0.546111 1.11022e-18
0.48 0.546468 1.11022e-18
0.478 0.546803 1.11022e-18
0.475994 0.5471 1.11022e-18
0.473983 0.547362 1.11022e-18
0.471968 0.54759 1.11022e-18
0.47 0.547779 1.11022e-18
0.468 0.547938 1.11022e-18
0.465997 0.548059 1.11022e-18
0.463993 0.548145 1.11022e-18
0.461987 0.548196 1.11022e-18
[...]
POINT_DATA 19293
 FIELD attributes 1
U 3 19293 float
-1.97524e-19 	-7.94222e-18 	0
0.0653864 	0.135268 	0 0.0647837 	0.13602 	0 0.0641809 	0.136767 	0 0.0635781 	0.137508 	0 0.0629752 	0.138243 	0 0.0622969 	0.139064 	0 0.0607174 	0.141019 	0 0.0591377 	0.142934 	0 0.0575582 	0.144808 	0 0.055979 	0.146641 	0 0.0544945 	0.148328 	0 0.0525505 	0.150657 	0 0.0506097 	0.152921 	0 0.0485619 	0.155029 	0 0.0464638 	0.157027 	0 0.0444794 	0.158851 	0 0.0426309 	0.160622 	0 0.0407835 	0.162334 	0 0.0389377 	0.163989 	0 0.0370936 	0.165586 	0 0.0351864 	0.166977 	0 0.0341947 	0.167689 	0 0.0332029 	0.168385 	0 0.0322111 	0.169063 	0 0.0312193 	0.169726 	0 0.0298797 	0.170599 	0 0.0291751 	0.17105 	0 0.0284705 	0.171493 	0 0.0277658 	0.171928 	0 0.0270612 	0.172354 	0 0.0263618 	0.17277 	0 0.0247199 	0.173666 	0 0.0230086 	0.174461 	0 0.0212958 	0.175205 	0 0.0195816 	0.1759 	0 0.01789 	0.176537 	0 0.0163927 	0.177088 	0 0.0147472 	0.177485 	0 0.0130824 	0.177823 	0 0.0114154 	0.178113 	0 0.00975959 	0.178354 	0 0.00829347 	0.178501 	0 0.00674713 	0.178552 	0 0.00512384 	0.178509 	0 0.00349769 	0.178419 	0 0.00187463 	0.178283 	0 0.000430012 	0.178047 	0 -0.00107251 	0.177737 	0 -0.00266442 	0.177331 	0 -0.0042598 	0.176879 	0 -0.00585887 	0.176379 	0 -0.00729743 	0.175772 	0 -0.00880458 	0.175089 	0 -0.0103837 	0.174328 	0 -0.011967 	0.173518 	0 -0.0135608 	0.172656 	0 -0.0150121 	0.171673 	0 -0.0165686 	0.170608 	0 -0.0181574 	0.169484 	0 -0.019751 	0.168308 	0 -0.0213634 	0.167068 	0 -0.0228797 	0.165688 	0 -0.0244932 	0.164237 	0 -0.0261127 	0.16273 	0 -0.0277379 	0.161166 	0 -0.029394 	0.159518 	0 -0.0295186 	0.159374 	0 -0.0296512 	0.15923 	0 -0.0297839 	0.159085 	0 -0.0299166 	0.15894 	0 -0.0300426 	0.158802 	0 -0.0315548 	0.157165 	0 -0.0330718 	0.155478 	0 -0.0345935 	0.15374 	0 -0.0361198 	0.151949 	0 -0.037779 	0.150086 	0 -0.0394849 	0.147899 	0 -0.0411974 	0.145643 	0 -0.0429164 	0.143318 	0 -0.0447403 	0.140958 	0 -0.0466702 	0.138429 	0 -0.0484756 	0.135723 	0 -0.0502969 	0.132939 	0 -0.0522478 	0.130126 	0 -0.0542071 	0.127222 	0 -0.056314 	0.124012 	0 -0.0569144 	0.122976 	0 -0.0575351 	0.12194 	0 -0.0581817 	0.120907 	0 -0.0588292 	0.119864 	0 -0.0593788 	0.11897 	0 -0.0608391 	0.116618 	0 -0.0623017 	0.114215 	0 -0.0637661 	0.111761 	0 -0.0653023 	0.109297 	0 -0.067032 	0.106545 	0 -0.0692361 	0.10264 	0 -0.0714542 	0.0986276 	0 -0.0738212 	0.0945864 	0 -0.0761857 	0.0904268 	0 -0.0775362 	0.0879776 	0 -0.0779059 	0.0872997 	0 -0.0782752 	0.0866191 	0 -0.0786533 	0.085941 	0 -0.0790487 	0.0852702 	0 -0.0794661 	0.0845582 	0 -0.081988 	0.0799064 	0 -0.0844897 	0.0751412 	0 -0.0870727 	0.0703268 	0 -0.089701 	0.0654534 	0 -0.0912961 	0.0623913 	0 -0.0920183 	0.0609585 	0 -0.0927356 	0.0595195 	0 -0.0935005 	0.0581027 	0 -0.0942619 	0.0566811 	0 -0.0951958 	0.054918 	0 -0.0966391 	0.0519982 	0 -0.098061 	0.049063 	0 -0.0994601 	0.0461148 	0 -0.100919 	0.0432026 	0 -0.102156 	0.0407262 	0 -0.104014 	0.0368066 	0 -0.105815 	0.0328837 	0 -0.107636 	0.0290113 	0 -0.10945 	0.02518 	0 -0.110981 	0.0218392 	0 -0.112428 	0.0183615 	0 -0.113872 	0.0149438 	0 -0.115308 	0.011585 	0 -0.116686 	0.0082481 	0 -0.117946 	0.00508887 	0 -0.119028 	0.00193298 	0 -0.120132 	-0.00111995 	0 -0.121186 	-0.0041427 	0 -0.122188 	-0.00713894 	0 -0.123137 	-0.0101039 	0 -0.123878 	-0.0130269 	0 -0.124613 	-0.0158585 	0 -0.125313 	-0.0186418 	0 -0.125965 	-0.0213977 	0 -0.126585 	-0.024195 	0 -0.126993 	-0.0269486 	0 -0.127353 	-0.029672 	0 -0.127692 	-0.0322979 	0 -0.127995 	-0.0348748 	0 -0.128265 	-0.0375363 	0 -0.128321 	-0.0401553 	0 -0.128332 	-0.0427436 	0 -0.128299 	-0.0453009 	0 -0.128223 	-0.047827 	0 -0.128102 	-0.0504116 	0 -0.128037 	-0.0509095 	0 -0.12797 	-0.0514062 	0 -0.127901 	-0.0519016 	0 -0.127831 	-0.0523959 	0 -0.127765 	-0.0528463 	0 -0.127437 	-0.054904 	0 -0.127078 	-0.0569425 	0 -0.126691 	-0.0589616 	0 -0.126273 	-0.060961 	0 -0.125799 	-0.0630685 	0 -0.125029 	-0.0656457 	0 -0.124213 	-0.068187 	0 -0.12335 	-0.0706921 	0 -0.122441 	-0.0731561 	0 -0.121373 	-0.07575 	0 -0.121196 	-0.0761084 	0 -0.121019 	-0.076466 	0 -0.12084 	-0.0768228 	0 -0.120661 	-0.0771789 	0 -0.120488 	-0.0775187 	0 -0.119379 	-0.0797469 	0 -0.118233 	-0.0819477 	0 -0.117052 	-0.0841206 	0 -0.115836 	-0.086265 	0 -0.114436 	-0.0886348 	0 -0.113527 	-0.0900032 	0 -0.112604 	-0.0913584 	0 -0.111668 	-0.0927003 	0 -0.110718 	-0.0940288 	0 -0.109886 	-0.095165 	0 -0.108913 	-0.0965351 	0 -0.107926 	-0.0978917 	0 -0.106925 	-0.0992347 	0 -0.105912 	-0.100564 	0 -0.104778 	-0.102018 	0 -0.10348 	-0.103555 	0 -0.102165 	-0.105072 	0 -0.100834 	-0.106568 	0 -0.0994863 	-0.108044 	0 -0.0983006 	-0.109309 	0 -0.0970883 	-0.110663 	0 -0.0958637 	-0.112 	0 -0.094627 	-0.113321 	0 -0.0933785 	-0.114624 	0 -0.0919341 	-0.116099 	0 -0.0908505 	-0.117122 	0 -0.0897598 	-0.118132 	0 -0.0886622 	-0.119132 	0 -0.0875577 	-0.120119 	0 -0.0865301 	-0.121021 	0 -0.08441 	-0.123011 	0 -0.0822662 	-0.124956 	0 -0.0800998 	-0.126856 	0 -0.0779117 	-0.128711 	0 -0.0750518 	-0.13105 	0 -0.0750459 	-0.131055 	0 -0.07504 	-0.13106 	0 -0.075034 	-0.131064 	0 -0.0750281 	-0.131069 	0 -0.0750222 	-0.131073 	0 -0.0727351 	-0.132763 	0 -0.0704269 	-0.134401 	0 -0.0680987 	-0.135989 	0 -0.0657513 	-0.137524 	0 -0.0636151 	-0.138865 	0 -0.0614438 	-0.140292 	0 -0.0592585 	-0.141674 	0 -0.0570599 	-0.143011 	0 -0.0548489 	-0.144301 	0 -0.0527409 	-0.145408 	0 -0.052401 	-0.145576 	0 -0.0520608 	-0.145743 	0 -0.0517202 	-0.145909 	0 -0.0513794 	-0.146074 	0 -0.0510147 	-0.146249 	0 -0.0492082 	-0.147043 	0 -0.0473935 	-0.147808 	0 -0.045571 	-0.148544 	0 -0.0437411 	-0.149251 	0 -0.0419795 	-0.1499 	0 -0.0399575 	-0.15065 	0 -0.0379096 	-0.151348 	0 -0.0357496 	-0.151922 	0 -0.0335792 	-0.152453 	0 -0.0314766 	-0.152926 	0 -0.0294469 	-0.153317 	0 -0.0274092 	-0.15367 	0 -0.025364 	-0.153984 	0 -0.0232129 	-0.154208 	0 -0.021081 	-0.154374 	0 -0.0190273 	-0.154408 	0 -0.0169657 	-0.154403 	0 -0.0148965 	-0.154358 	0 -0.012813 	-0.154272 	0 -0.0106374 	-0.154129 	0 -0.00854616 	-0.153807 	0 -0.0064469 	-0.153445 	0 -0.00433993 	-0.153042 	0 -0.00222557 	-0.152598 	0 -1.96168e-05 	-0.152135 	0 0.0021205 	-0.151457 	0 0.00426884 	-0.150737 	0 0.00642508 	-0.149975 	0 0.00858888 	-0.149171 	0 0.0108816 	-0.148381 	0 0.0130816 	-0.147342 	0 0.0152901 	-0.146261 	0 0.0175066 	-0.145136 	0 0.0197657 	-0.143995 	0 0.0221791 	-0.142881 	0 0.0244536 	-0.141475 	0 0.0267368 	-0.140025 	0 0.0290282 	-0.138529 	0 0.0314751 	-0.137141 	0 0.0340209 	-0.13567 	0 0.0363907 	-0.133884 	0 0.0387691 	-0.132052 	0 0.0413148 	-0.130367 	0 0.0438843 	-0.128654 	0 0.0466135 	-0.126791 	0 0.048172 	-0.125425 	0 0.0498139 	-0.124149 	0 0.0515012 	-0.122912 	0 0.0531918 	-0.121658 	0 0.054303 	-0.120824 	0 0.0554267 	-0.119875 	0 0.0565501 	-0.118916 	0 0.0576731 	-0.117948 	0 0.058838 	-0.117037 	0 0.0600965 	-0.116121 	0 0.0628061 	-0.113672 	0 0.0655132 	-0.111176 	0 0.0682929 	-0.108757 	0 0.0711885 	-0.106487 	0 0.0745536 	-0.103795 	0 0.0753862 	-0.102959 	0 0.0762181 	-0.102119 	0 0.0771109 	-0.101377 	0 0.0780089 	-0.100641 	0 0.0787984 	-0.0999909 	0 0.0809467 	-0.097876 	0 0.0830818 	-0.0957385 	0 0.085235 	-0.093635 	0 0.0874957 	-0.091721 	0 0.0902138 	-0.0893805 	0 0.0913653 	-0.0881566 	0 0.0925122 	-0.086929 	0 0.0937003 	-0.0857777 	0 0.0949318 	-0.0847067 	0 0.0960091 	-0.0837631 	0 0.098093 	-0.0814582 	0 0.100151 	-0.0791386 	0 0.102285 	-0.0769954 	0 0.104442 	-0.0749346 	0 0.107252 	-0.0722004 	0 0.107647 	-0.0717315 	0 0.10804 	-0.0712624 	0 0.108433 	-0.0707939 	0 0.108858 	-0.0703884 	0 0.109269 	-0.0699953 	0 0.11139 	-0.0672914 	0 0.113469 	-0.0645781 	0 0.115551 	-0.0619522 	0 0.117703 	-0.0595624 	0 0.119505 	-0.0575167 	0 0.120585 	-0.0558183 	0 0.121673 	-0.0541875 	0 0.122788 	-0.0526725 	0 0.123886 	-0.0511542 	0 0.125339 	-0.0491074 	0 0.125748 	-0.0484227 	0 0.126154 	-0.0477381 	0 0.126558 	-0.0470536 	0 0.126972 	-0.0464044 	0 0.127395 	-0.0458219 	0 0.128572 	-0.0434105 	0 0.129714 	-0.040996 	0 0.130822 	-0.0385793 	0 0.131948 	-0.036356 	0 0.132994 	-0.0343516 	0 0.133792 	-0.0319018 	0 0.134553 	-0.0294485 	0 0.135304 	-0.0271743 	0 0.136033 	-0.0249718 	0 0.136701 	-0.0228568 	0 0.137124 	-0.0203227 	0 0.137512 	-0.0179004 	0 0.137866 	-0.0155972 	0 0.138185 	-0.0132888 	0 0.138463 	-0.0110332 	0 0.138513 	-0.00837847 	0 0.138495 	-0.00593876 	0 0.138441 	-0.00349914 	0 0.138351 	-0.00105381 	0 0.138228 	0.0013731 	0 0.137889 	0.00415722 	0 0.137459 	0.00675386 	0 0.136993 	0.00935725 	0 0.13649 	0.0119665 	0 0.135946 	0.0146007 	0 0.135217 	0.0175849 	0 0.134389 	0.02043 	0 0.133502 	0.0232252 	0 0.132577 	0.0260257 	0 0.131586 	0.028917 	0 0.130439 	0.0321168 	0 0.12925 	0.035316 	0 0.127978 	0.038429 	0 0.126624 	0.0414559 	0 0.125143 	0.0446847 	0 0.1236 	0.048048 	0 0.12202 	0.0514049 	0 0.120405 	0.0547527 	0 0.118756 	0.0580886 	0 0.118064 	0.0594538 	0 0.117758 	0.06004 	0 0.11745 	0.0606258 	0 0.117142 	0.0612111 	0 0.116832 	0.0617959 	0 0.116513 	0.0623953 	0 0.114475 	0.0663573 	0 0.112327 	0.0702002 	0 0.11015 	0.0740217 	0 0.107944 	0.0778178 	0 0.105241 	0.0823823 	0 0.104289 	0.0840169 	0 0.103334 	0.0856439 	0 0.102375 	0.0872631 	0 0.101414 	0.0888741 	0 0.100607 	0.0902149 	0 0.0987985 	0.0932164 	0 0.0969818 	0.0961872 	0 0.0951583 	0.0991259 	0 0.0933291 	0.102031 	0 0.0910249 	0.105639 	0 0.090043 	0.107202 	0 0.0890606 	0.108754 	0 0.0880777 	0.110295 	0 0.0870947 	0.111824 	0 0.0862106 	0.113188 	0 0.0837852 	0.117007 	0 0.081363 	0.120751 	0 0.0789458 	0.124419 	0 0.0765354 	0.128011 	0 0.07376 	0.13196 	0 0.0735993 	0.132182 	0 0.0734385 	0.132404 	0 0.0732778 	0.132625 	0 0.0731171 	0.132847 	0 0.0729516 	0.133074 	0 0.070802 	0.136107 	0 0.0686547 	0.13907 	0 0.0665104 	0.141962 	0 0.0643701 	0.144786 	0 0.0624579 	0.147253 	0 0.0604332 	0.149987 	0 0.0584156 	0.152656 	0 0.0564052 	0.155261 	0 0.0543655 	0.157769 	0 0.0523493 	0.159941 	0 0.0514434 	0.160963 	0 0.0505384 	0.161973 	0 0.0496342 	0.162969 	0 0.0487309 	0.163952 	0 0.0476204 	0.165146 	0 0.0466803 	0.166153 	0 0.0457411 	0.167146 	0 0.044803 	0.168125 	0 0.0438659 	0.16909 	0 0.0429473 	0.170024 	0 0.0412921 	0.171832 	0 0.0394704 	0.173445 	0 0.0376499 	0.175005 	0 0.0358311 	0.176512 	0 0.0340638 	0.177927 	0 0.0324838 	0.17928 	0 0.0309061 	0.180589 	0 0.0291886 	0.181736 	0 0.0274269 	0.182799 	0 0.0256961 	0.183795 	0 0.0241621 	0.184715 	0 0.0226289 	0.185593 	0 0.0210965 	0.186431 	0 0.0193988 	0.187096 	0 0.0177048 	0.187698 	0 0.016208 	0.188214 	0 0.0147108 	0.18869 	0 0.0132133 	0.189128 	0 0.0116457 	0.189474 	0 0.00998838 	0.189702 	0 0.00852205 	0.189838 	0 0.00705439 	0.189936 	0 0.00558548 	0.189996 	0 0.00409017 	0.189999 	0 0.0024672 	0.189873 	0 0.00102323 	0.18965 	0 -0.000422829 	0.189388 	0 -0.00187089 	0.189088 	0 -0.00333906 	0.188737 	0 -0.00493531 	0.188271 	0 -0.00637104 	0.1877 	0 -0.00780956 	0.187088 	0 -0.0092508 	0.186436 	0 -0.0107326 	0.185726 	0 -0.0123195 	0.184923 	0 -0.0137645 	0.184003 	0 -0.015213 	0.18304 	0 -0.016665 	0.182034 	0 -0.0181995 	0.180957 	0 -0.019799 	0.179808 	0 -0.0212695 	0.178529 	0 -0.0227443 	0.177204 	0 -0.0242375 	0.175828 	0 -0.0258475 	0.174382 	0 -0.0274816 	0.172865 	0 -0.0289942 	0.171204 	0 -0.0305122 	0.169491 	0 -0.0321342 	0.16772 	0 -0.0337905 	0.16589 	0 -0.0354844 	0.163965 	0 -0.0370588 	0.161882 	0 -0.0387203 	0.159746 	0 -0.0404389 	0.15755 	0 -0.0421655 	0.155286 	0 -0.0439525 	0.152882 	0 -0.0444896 	0.152051 	0 -0.0450666 	0.15122 	0 -0.0456497 	0.150383 	0 -0.0462339 	0.149538 	0 -0.0467259 	0.148821 	0 -0.047953 	0.147039 	0 -0.0491835 	0.145222 	0 -0.0504176 	0.143369 	0 -0.0516749 	0.141488 	0 -0.053055 	0.13953 	0 -0.054932 	0.136523 	0 -0.0568178 	0.13343 	0 -0.0587461 	0.130266 	0 -0.0607889 	0.127065 	0 -0.0630166 	0.123484 	0 -0.0643785 	0.121008 	0 -0.0657774 	0.118503 	0 -0.0672522 	0.115987 	0 -0.0687313 	0.113421 	0 -0.069766 	0.111594 	0 -0.070639 	0.110052 	0 -0.0715123 	0.108492 	0 -0.0723859 	0.106915 	0 -0.073319 	0.105355 	0 -0.0743325 	0.103653 	0 -0.0767394 	0.0991978 	0 -0.0791471 	0.0946185 	0 -0.0817047 	0.0900026 	0 -0.0842852 	0.0852793 	0 -0.086168 	0.0817293 	0 -0.0864705 	0.0811474 	0 -0.0867727 	0.0805639 	0 -0.0870872 	0.0799859 	0 -0.0874112 	0.0794118 	0 -0.0877536 	0.0788026 	0 -0.0901423 	0.0742142 	0 -0.0925089 	0.0695442 	0 -0.0949108 	0.0648341 	0 -0.0973916 	0.0601184 	0 -0.0990525 	0.056869 	0 -0.100292 	0.0543579 	0 -0.101532 	0.0518445 	0 -0.102831 	0.0493634 	0 -0.104113 	0.0468739 	0 -0.106045 	0.0430577 	0 -0.106735 	0.0415873 	0 -0.10742 	0.0401165 	0 -0.108098 	0.0386457 	0 -0.108791 	0.0371876 	0 -0.109467 	0.035824 	0 -0.111272 	0.0320186 	0 -0.113026 	0.0282231 	0 -0.114727 	0.0244423 	0 -0.11645 	0.0207358 	0 -0.117998 	0.0174221 	0 -0.119429 	0.0140564 	0 -0.12081 	0.010715 	0 -0.122164 	0.00742249 	0 -0.123531 	0.0042208 	0 -0.124807 	0.00114071 	0 -0.125899 	-0.00189933 	0 -0.126943 	-0.00491096 	0 -0.127962 	-0.00786332 	0 -0.128978 	-0.0107287 	0 -0.129955 	-0.0135835 	0 -0.130724 	-0.0163833 	0 -0.131449 	-0.0191543 	0 -0.132132 	-0.0218961 	0 -0.132804 	-0.0245382 	0 -0.133464 	-0.027201 	0 -0.133909 	-0.0298164 	0 -0.134314 	-0.0324038 	0 -0.134679 	-0.034963 	0 -0.135005 	-0.0374937 	0 -0.135311 	-0.0400637 	0 -0.135327 	-0.0404713 	0 -0.135342 	-0.0408783 	0 -0.135357 	-0.0412845 	0 -0.13537 	-0.04169 	0 -0.135381 	-0.0420588 	0 -0.135403 	-0.0441528 	0 -0.135396 	-0.0462293 	0 -0.13536 	-0.0482882 	0 -0.135297 	-0.0503291 	0 -0.135201 	-0.0524463 	0 -0.134887 	-0.0549505 	0 -0.134531 	-0.0574257 	0 -0.134126 	-0.0598056 	0 -0.133677 	-0.062116 	0 -0.133157 	-0.0645615 	0 -0.132732 	-0.0659822 	0 -0.132293 	-0.0673928 	0 -0.13184 	-0.0687932 	0 -0.131373 	-0.0701834 	0 -0.130983 	-0.0713063 	0 -0.130596 	-0.0723788 	0 -0.130201 	-0.0734457 	0 -0.129799 	-0.074507 	0 -0.129388 	-0.0755625 	0 -0.128952 	-0.076657 	0 -0.127788 	-0.0791649 	0 -0.12658 	-0.0816384 	0 -0.125329 	-0.0840768 	0 -0.124016 	-0.0864229 	0 -0.122493 	-0.0889862 	0 -0.122245 	-0.0893504 	0 -0.121996 	-0.0897139 	0 -0.121747 	-0.0900766 	0 -0.121496 	-0.0904384 	0 -0.121254 	-0.0907854 	0 -0.119795 	-0.0929662 	0 -0.118305 	-0.0951219 	0 -0.116784 	-0.0972519 	0 -0.115233 	-0.0993557 	0 -0.113429 	-0.101726 	0 -0.112664 	-0.102628 	0 -0.111893 	-0.103525 	0 -0.111117 	-0.104416 	0 -0.110336 	-0.105302 	0 -0.109614 	-0.106109 	0 -0.108087 	-0.107918 	0 -0.10654 	-0.109706 	0 -0.104974 	-0.111472 	0 -0.10339 	-0.113217 	0 -0.101526 	-0.115218 	0 -0.100738 	-0.115984 	0 -0.0999477 	-0.116744 	0 -0.0991535 	-0.117499 	0 -0.0983559 	-0.11825 	0 -0.0976036 	-0.11895 	0 -0.0954952 	-0.121074 	0 -0.0933642 	-0.123162 	0 -0.0912116 	-0.125215 	0 -0.0890383 	-0.127231 	0 -0.0862646 	-0.129734 	0 -0.0861766 	-0.129805 	0 -0.0860885 	-0.129875 	0 -0.0860005 	-0.129945 	0 -0.0859123 	-0.130016 	0 -0.0858246 	-0.130086 	0 -0.0834905 	-0.132053 	0 -0.0811105 	-0.133938 	0 -0.0787098 	-0.135775 	0 -0.0762895 	-0.137565 	0 -0.0741336 	-0.139106 	0 -0.0726052 	-0.140279 	0 -0.0710701 	-0.141432 	0 -0.0695287 	-0.142565 	0 -0.0679812 	-0.143679 	0 -0.066041 	-0.145045 	0 -0.0654536 	-0.145409 	0 -0.0648656 	-0.145771 	0 -0.064277 	-0.146131 	0 -0.0636877 	-0.146488 	0 -0.0631091 	-0.146835 	0 -0.0610416 	-0.148228 	0 -0.0588484 	-0.14944 	0 -0.0566408 	-0.150608 	0 -0.0544229 	-0.151738 	0 -0.0523313 	-0.152762 	0 -0.0502994 	-0.153819 	0 -0.0482604 	-0.154841 	0 -0.0462149 	-0.155829 	0 -0.0441301 	-0.156747 	0 -0.0420355 	-0.157488 	0 -0.0407011 	-0.157959 	0 -0.0393635 	-0.158415 	0 -0.0380229 	-0.158855 	0 -0.0366794 	-0.159279 	0 -0.0348309 	-0.15984 	0 -0.0342501 	-0.159982 	0 -0.0336688 	-0.160121 	0 -0.033087 	-0.160258 	0 -0.0325047 	-0.160392 	0 -0.0319265 	-0.160523 	0 -0.0299706 	-0.160867 	0 -0.0279443 	-0.161132 	0 -0.0259102 	-0.161366 	0 -0.0238686 	-0.161568 	0 -0.0218652 	-0.161734 	0 -0.0199921 	-0.161799 	0 -0.0180031 	-0.16178 	0 -0.0159472 	-0.1617 	0 -0.013883 	-0.161586 	0 -0.0118397 	-0.161442 	0 -0.00993001 	-0.161144 	0 -0.00798804 	-0.160809 	0 -0.00589237 	-0.160412 	0 -0.0037875 	-0.159981 	0 -0.00168772 	-0.159518 	0 0.000271823 	-0.158853 	0 0.00224286 	-0.158156 	0 0.00439421 	-0.15744 	0 0.00655583 	-0.156689 	0 0.00872993 	-0.155901 	0 0.0107518 	-0.154865 	0 0.0128215 	-0.15381 	0 0.0150443 	-0.152772 	0 0.0172786 	-0.151697 	0 0.0195485 	-0.150572 	0 0.021648 	-0.14916 	0 0.0238916 	-0.147797 	0 0.0262056 	-0.146433 	0 0.0285325 	-0.145031 	0 0.0309297 	-0.143554 	0 0.0322916 	-0.142466 	0 0.0337696 	-0.141459 	0 0.0352533 	-0.140438 	0 0.0367424 	-0.139403 	0 0.0375972 	-0.138803 	0 0.0386536 	-0.13799 	0 0.0397115 	-0.137168 	0 0.0407708 	-0.136338 	0 0.0418388 	-0.135507 	0 0.0430074 	-0.134734 	0 0.0454477 	-0.132668 	0 0.0478971 	-0.130558 	0 0.0503548 	-0.128405 	0 0.0529617 	-0.1264 	0 0.0558373 	-0.124267 	0 0.0584163 	-0.121806 	0 0.061062 	-0.11939 	0 0.0638752 	-0.117165 	0 0.0666954 	-0.114904 	0 0.0696246 	-0.112523 	0 0.0696752 	-0.112475 	0 0.0697258 	-0.112427 	0 0.0697764 	-0.112378 	0 0.0698304 	-0.112336 	0 0.0698849 	-0.112293 	0 0.0726788 	-0.10958 	0 0.075469 	-0.106829 	0 0.0782532 	-0.104044 	0 0.0812486 	-0.10158 	0 0.0848755 	-0.0985705 	0 0.0858551 	-0.0975396 	0 0.0868336 	-0.0965066 	0 0.0878713 	-0.0955707 	0 0.0889351 	-0.094678 	0 0.0898718 	-0.0938894 	0 0.0920054 	-0.0916534 	0 0.0941246 	-0.0894042 	0 0.0963057 	-0.087277 	0 0.0985663 	-0.0853053 	0 0.10139 	-0.0828122 	0 0.10212 	-0.0820047 	0 0.102849 	-0.081197 	0 0.103593 	-0.0804182 	0 0.104386 	-0.0797282 	0 0.105126 	-0.0790825 	0 0.107593 	-0.0762389 	0 0.110025 	-0.0733878 	0 0.112577 	-0.0708231 	0 0.115143 	-0.0683511 	0 0.117209 	-0.0663297 	0 0.117608 	-0.0657957 	0 0.118011 	-0.0652742 	0 0.118438 	-0.064806 	0 0.118863 	-0.0643376 	0 0.119324 	-0.0638277 	0 0.120777 	-0.0618828 	0 0.122212 	-0.0599388 	0 0.123628 	-0.0579965 	0 0.125122 	-0.0562569 	0 0.126504 	-0.0547381 	0 0.127991 	-0.0523405 	0 0.129447 	-0.0499423 	0 0.130974 	-0.0478134 	0 0.132488 	-0.0457272 	0 0.133858 	-0.0437995 	0 0.134616 	-0.0421732 	0 0.135399 	-0.0406934 	0 0.13618 	-0.0392568 	0 0.136946 	-0.0378188 	0 0.138021 	-0.0357633 	0 0.13826 	-0.0352115 	0 0.138498 	-0.0346598 	0 0.138734 	-0.0341084 	0 0.13897 	-0.0335583 	0 0.139225 	-0.0330899 	0 0.139918 	-0.0308472 	0 0.140586 	-0.0286036 	0 0.141229 	-0.0263598 	0 0.141856 	-0.024163 	0 0.142482 	-0.0222723 	0 0.142826 	-0.0199469 	0 0.143144 	-0.0176192 	0 0.143436 	-0.0152899 	0 0.143714 	-0.0131709 	0 0.143965 	-0.0111481 	0 0.143953 	-0.008707 	0 0.143914 	-0.00626228 	0 0.143844 	-0.00384929 	0 0.143731 	-0.00165049 	0 0.143594 	0.000534062 	0 0.143216 	0.00311896 	0 0.142809 	0.00570844 	0 0.142367 	0.00827401 	0 0.141854 	0.0106349 	0 0.141313 	0.0130152 	0 0.140555 	0.0157713 	0 0.139767 	0.0185326 	0 0.138949 	0.021298 	0 0.138061 	0.023943 	0 0.137094 	0.0265645 	0 0.13594 	0.0295267 	0 0.134756 	0.0324938 	0 0.133542 	0.0354644 	0 0.132299 	0.0384369 	0 0.130948 	0.0415386 	0 0.130844 	0.0417516 	0 0.13074 	0.0419646 	0 0.130636 	0.0421775 	0 0.130532 	0.0423905 	0 0.130433 	0.0425923 	0 0.1289 	0.0456461 	0 0.12734 	0.0487046 	0 0.125753 	0.051766 	0 0.12414 	0.0548283 	0 0.122346 	0.0581782 	0 0.120373 	0.0619284 	0 0.118368 	0.0656664 	0 0.116336 	0.0693885 	0 0.114273 	0.0730845 	0 0.111754 	0.0773003 	0 0.111456 	0.0778081 	0 0.111158 	0.0783156 	0 0.11086 	0.0788226 	0 0.110561 	0.0793292 	0 0.11028 	0.0798048 	0 0.10804 	0.0835815 	0 0.10579 	0.0873342 	0 0.103533 	0.0910594 	0 0.101272 	0.0947538 	0 0.0983957 	0.0994034 	0 0.0975957 	0.100715 	0 0.096796 	0.102021 	0 0.0959967 	0.103321 	0 0.0951979 	0.104616 	0 0.0944785 	0.105778 	0 0.0921371 	0.109605 	0 0.0898033 	0.113381 	0 0.087479 	0.117103 	0 0.0851657 	0.12077 	0 0.0819649 	0.125793 	0 0.0818348 	0.125998 	0 0.0817046 	0.126203 	0 0.0815746 	0.126407 	0 0.0814446 	0.126611 	0 0.0813158 	0.126814 	0 0.078923 	0.130591 	0 0.0764927 	0.134243 	0 0.0740717 	0.137816 	0 0.0716613 	0.141309 	0 0.0696126 	0.144226 	0 0.067899 	0.14676