# vtk DataFile Version 2.0
track0
ASCII
DATASET POLYDATA
POINTS 20002 float
1.11022e-18 0.5 1.11022e-18
0.391304 0.5 1.11022e-18
0.391043 0.499439 1.11022e-18
0.390786 0.498877 1.11022e-18
0.390532 0.498313 1.11022e-18
0.390281 0.497748 1.11022e-18
0.39 0.497106 1.11022e-18
0.38939 0.495685 1.11022e-18
0.388799 0.494255 1.11022e-18
0.388229 0.492817 1.11022e-18
0.387677 0.491372 1.11022e-18
0.387173 0.49 1.11022e-18
0.386465 0.488 1.11022e-18
0.385788 0.485989 1.11022e-18
0.385142 0.483968 1.11022e-18
0.384525 0.481938 1.11022e-18
0.383965 0.48 1.11022e-18
0.383413 0.478 1.11022e-18
0.382885 0.475994 1.11022e-18
0.382379 0.473982 1.11022e-18
0.381895 0.471965 1.11022e-18
0.381443 0.47 1.11022e-18
0.381155 0.468685 1.11022e-18
0.380873 0.467368 1.11022e-18
0.380599 0.46605 1.11022e-18
0.380332 0.46473 1.11022e-18
0.38 0.463042 1.11022e-18
0.379884 0.462434 1.11022e-18
0.37977 0.461825 1.11022e-18
0.379657 0.461216 1.11022e-18
0.379545 0.460607 1.11022e-18
0.379436 0.46 1.11022e-18
0.379078 0.458 1.11022e-18
0.378733 0.455998 1.11022e-18
0.378401 0.453994 1.11022e-18
0.37808 0.451987 1.11022e-18
0.377774 0.45 1.11022e-18
0.377477 0.448 1.11022e-18
0.377189 0.445999 1.11022e-18
0.37691 0.443996 1.11022e-18
0.37664 0.441993 1.11022e-18
0.37638 0.44 1.11022e-18
0.376128 0.438 1.11022e-18
0.375882 0.435999 1.11022e-18
0.375642 0.433998 1.11022e-18
0.375408 0.431996 1.11022e-18
0.375182 0.43 1.11022e-18
0.374963 0.428 1.11022e-18
0.374748 0.426 1.11022e-18
0.374537 0.423999 1.11022e-18
0.37433 0.421997 1.11022e-18
0.374129 0.42 1.11022e-18
0.373933 0.418 1.11022e-18
0.373741 0.416 1.11022e-18
0.373551 0.413999 1.11022e-18
0.373364 0.411998 1.11022e-18
0.373182 0.41 1.11022e-18
0.373003 0.408 1.11022e-18
0.372827 0.406 1.11022e-18
0.372653 0.403999 1.11022e-18
0.372482 0.401999 1.11022e-18
0.372313 0.4 1.11022e-18
0.372147 0.398 1.11022e-18
0.371983 0.396 1.11022e-18
0.371821 0.394 1.11022e-18
0.371661 0.391999 1.11022e-18
0.371502 0.39 1.11022e-18
0.371346 0.388 1.11022e-18
0.371192 0.386 1.11022e-18
0.371039 0.384 1.11022e-18
0.370887 0.381999 1.11022e-18
0.370737 0.38 1.11022e-18
0.37059 0.378009 1.11022e-18
0.370444 0.376019 1.11022e-18
0.370299 0.374028 1.11022e-18
0.370155 0.372037 1.11022e-18
0.37001 0.37 1.11022e-18
0.370008 0.369972 1.11022e-18
0.370006 0.369945 1.11022e-18
0.370004 0.369917 1.11022e-18
0.370002 0.369889 1.11022e-18
0.37 0.369862 1.11022e-18
0.36986 0.367889 1.11022e-18
0.369722 0.365917 1.11022e-18
0.369585 0.363944 1.11022e-18
0.369449 0.361972 1.11022e-18
0.369315 0.36 1.11022e-18
0.36918 0.358 1.11022e-18
0.369046 0.356 1.11022e-18
0.368913 0.354 1.11022e-18
0.368782 0.352 1.11022e-18
0.368652 0.35 1.11022e-18
0.368523 0.348 1.11022e-18
0.368396 0.346 1.11022e-18
0.368269 0.344 1.11022e-18
0.368145 0.342 1.11022e-18
0.368022 0.34 1.11022e-18
0.367901 0.338 1.11022e-18
0.36778 0.336 1.11022e-18
0.367662 0.334 1.11022e-18
0.367545 0.332 1.11022e-18
0.36743 0.33 1.11022e-18
0.367317 0.328 1.11022e-18
0.367206 0.326 1.11022e-18
0.367096 0.324 1.11022e-18
0.366988 0.321999 1.11022e-18
0.366882 0.32 1.11022e-18
0.366779 0.318 1.11022e-18
0.366677 0.316 1.11022e-18
0.366577 0.314 1.11022e-18
0.36648 0.311999 1.11022e-18
0.366385 0.31 1.11022e-18
0.366293 0.308 1.11022e-18
0.366203 0.306 1.11022e-18
0.366115 0.304 1.11022e-18
0.36603 0.301999 1.11022e-18
0.365947 0.3 1.11022e-18
0.365868 0.298 1.11022e-18
0.365792 0.296 1.11022e-18
0.365718 0.294 1.11022e-18
0.365647 0.291999 1.11022e-18
0.365579 0.29 1.11022e-18
0.365515 0.288 1.11022e-18
0.365454 0.286 1.11022e-18
0.365396 0.284 1.11022e-18
0.365342 0.281999 1.11022e-18
0.365291 0.28 1.11022e-18
0.365245 0.278 1.11022e-18
0.365202 0.276 1.11022e-18
0.365162 0.274 1.11022e-18
0.365127 0.272 1.11022e-18
0.365096 0.27 1.11022e-18
0.36507 0.268 1.11022e-18
0.365048 0.266 1.11022e-18
0.36503 0.264 1.11022e-18
0.365016 0.262 1.11022e-18
0.365008 0.26 1.11022e-18
0.365005 0.258 1.11022e-18
0.365007 0.256 1.11022e-18
0.365014 0.254 1.11022e-18
0.365026 0.252 1.11022e-18
0.365044 0.25 1.11022e-18
0.365068 0.248 1.11022e-18
0.365098 0.246 1.11022e-18
0.365134 0.244 1.11022e-18
0.365175 0.242001 1.11022e-18
0.365224 0.24 1.11022e-18
0.36528 0.238 1.11022e-18
0.365342 0.236 1.11022e-18
0.365412 0.234001 1.11022e-18
0.365488 0.232001 1.11022e-18
0.365573 0.23 1.11022e-18
0.365667 0.228 1.11022e-18
0.365768 0.226 1.11022e-18
0.365877 0.224001 1.11022e-18
0.365996 0.222003 1.11022e-18
0.366124 0.22 1.11022e-18
0.366262 0.218 1.11022e-18
0.36641 0.216001 1.11022e-18
0.366567 0.214002 1.11022e-18
0.366736 0.212005 1.11022e-18
0.366918 0.21 1.11022e-18
0.367111 0.208 1.11022e-18
0.367315 0.206001 1.11022e-18
0.367533 0.204004 1.11022e-18
0.367764 0.202008 1.11022e-18
0.368012 0.2 1.11022e-18
0.368273 0.198 1.11022e-18
0.36855 0.196002 1.11022e-18
0.368844 0.194006 1.11022e-18
0.369155 0.192014 1.11022e-18
0.369487 0.19 1.11022e-18
0.36959 0.189415 1.11022e-18
0.369694 0.18883 1.11022e-18
0.3698 0.188246 1.11022e-18
0.369908 0.187662 1.11022e-18
0.37 0.187172 1.11022e-18
0.370273 0.185737 1.11022e-18
0.370558 0.184305 1.11022e-18
0.370854 0.182875 1.11022e-18
0.371161 0.181448 1.11022e-18
0.371487 0.18 1.11022e-18
0.371956 0.178 1.11022e-18
0.372453 0.176007 1.11022e-18
0.372978 0.17402 1.11022e-18
0.373533 0.172043 1.11022e-18
0.374142 0.17 1.11022e-18
0.374778 0.168 1.11022e-18
0.375451 0.166012 1.11022e-18
0.376165 0.164039 1.11022e-18
0.376921 0.162082 1.11022e-18
0.377781 0.16 1.11022e-18
0.378225 0.159002 1.11022e-18
0.378683 0.158011 1.11022e-18
0.379155 0.157027 1.11022e-18
0.379642 0.156049 1.11022e-18
0.38 0.155357 1.11022e-18
0.38057 0.154286 1.11022e-18
0.381159 0.153224 1.11022e-18
0.381767 0.152174 1.11022e-18
0.382395 0.151136 1.11022e-18
0.383112 0.15 1.11022e-18
0.384437 0.148 1.11022e-18
0.385847 0.146059 1.11022e-18
0.387345 0.144185 1.11022e-18
0.388931 0.142385 1.11022e-18
0.39 0.14129 1.11022e-18
0.39027 0.141032 1.11022e-18
0.390542 0.140776 1.11022e-18
0.390816 0.140523 1.11022e-18
0.391092 0.140271 1.11022e-18
0.391395 0.14 1.11022e-18
0.393116 0.138486 1.11022e-18
0.394912 0.137061 1.11022e-18
0.396782 0.135734 1.11022e-18
0.39872 0.134511 1.11022e-18
0.4 0.133795 1.11022e-18
0.401476 0.133036 1.11022e-18
0.40298 0.132333 1.11022e-18
0.404508 0.131684 1.11022e-18
0.406058 0.13109 1.11022e-18
0.409225 0.13 1.11022e-18
0.40938 0.129959 1.11022e-18
0.409535 0.129918 1.11022e-18
0.40969 0.129877 1.11022e-18
0.409846 0.129837 1.11022e-18
0.41 0.129798 1.11022e-18
0.412 0.129298 1.11022e-18
0.414017 0.128873 1.11022e-18
0.416049 0.128523 1.11022e-18
0.418092 0.128246 1.11022e-18
0.42 0.128056 1.11022e-18
0.422 0.127917 1.11022e-18
0.424003 0.127838 1.11022e-18
0.426008 0.127816 1.11022e-18
0.428012 0.127851 1.11022e-18
0.43 0.12794 1.11022e-18
0.432 0.128079 1.11022e-18
0.433996 0.128266 1.11022e-18
0.435987 0.128501 1.11022e-18
0.437972 0.128782 1.11022e-18
0.44 0.129115 1.11022e-18
0.440949 0.129292 1.11022e-18
0.441896 0.129478 1.11022e-18
0.442842 0.129674 1.11022e-18
0.443785 0.129879 1.11022e-18
0.444318 0.13 1.11022e-18
0.445455 0.130265 1.11022e-18
0.446588 0.130542 1.11022e-18
0.447718 0.130832 1.11022e-18
0.448845 0.131135 1.11022e-18
0.45 0.131459 1.11022e-18
0.452 0.132043 1.11022e-18
0.453988 0.132666 1.11022e-18
0.455965 0.133326 1.11022e-18
0.457929 0.13402 1.11022e-18
0.46 0.134792 1.11022e-18
0.462 0.135578 1.11022e-18
0.463986 0.1364 1.11022e-18
0.465957 0.137256 1.11022e-18
0.467914 0.138144 1.11022e-18
0.47 0.139133 1.11022e-18
0.470351 0.139306 1.11022e-18
0.470701 0.139481 1.11022e-18
0.471051 0.139656 1.11022e-18
0.4714 0.139833 1.11022e-18
0.471729 0.14 1.11022e-18
0.473384 0.140847 1.11022e-18
0.475026 0.141716 1.11022e-18
0.476657 0.142607 1.11022e-18
0.478275 0.143519 1.11022e-18
0.48 0.14452 1.11022e-18
0.48183 0.145616 1.11022e-18
0.483644 0.146739 1.11022e-18
0.485442 0.147888 1.11022e-18
0.487224 0.149061 1.11022e-18
0.488607 0.15 1.11022e-18
0.488885 0.150193 1.11022e-18
0.489164 0.150388 1.11022e-18
0.489441 0.150582 1.11022e-18
0.489719 0.150778 1.11022e-18
0.49 0.150976 1.11022e-18
0.492 0.152398 1.11022e-18
0.493977 0.153851 1.11022e-18
0.49593 0.155336 1.11022e-18
0.497861 0.15685 1.11022e-18
0.5 0.158578 1.11022e-18
0.50034 0.158863 1.11022e-18
0.50068 0.159148 1.11022e-18
0.501019 0.159434 1.11022e-18
0.501357 0.159721 1.11022e-18
0.501684 0.16 1.11022e-18
0.503347 0.161426 1.11022e-18
0.504991 0.162875 1.11022e-18
0.506615 0.164346 1.11022e-18
0.50822 0.165838 1.11022e-18
0.51 0.167535 1.11022e-18
0.510503 0.168028 1.11022e-18
0.511003 0.168523 1.11022e-18
0.511502 0.16902 1.11022e-18
0.511999 0.169519 1.11022e-18
0.512474 0.17 1.11022e-18
0.513979 0.171536 1.11022e-18
0.515464 0.173091 1.11022e-18
0.51693 0.174665 1.11022e-18
0.518377 0.176256 1.11022e-18
0.52 0.178087 1.11022e-18
0.52033 0.178469 1.11022e-18
0.520659 0.178853 1.11022e-18
0.520987 0.179237 1.11022e-18
0.521315 0.179623 1.11022e-18
0.521633 0.18 1.11022e-18
0.523306 0.181994 1.11022e-18
0.52495 0.184012 1.11022e-18
0.526564 0.186054 1.11022e-18
0.528148 0.188119 1.11022e-18
0.529551 0.19 1.11022e-18
0.529641 0.190124 1.11022e-18
0.529731 0.190247 1.11022e-18
0.52982 0.190371 1.11022e-18
0.52991 0.190495 1.11022e-18
0.53 0.19062 1.11022e-18
0.531352 0.192496 1.11022e-18
0.53268 0.194388 1.11022e-18
0.533986 0.196297 1.11022e-18
0.535268 0.198221 1.11022e-18
0.536424 0.2 1.11022e-18
0.537139 0.201126 1.11022e-18
0.537847 0.202258 1.11022e-18
0.538546 0.203394 1.11022e-18
0.539239 0.204535 1.11022e-18
0.54 0.205809 1.11022e-18
0.540493 0.206647 1.11022e-18
0.540982 0.207487 1.11022e-18
0.541467 0.20833 1.11022e-18
0.541948 0.209175 1.11022e-18
0.542413 0.21 1.11022e-18
0.543528 0.212 1.11022e-18
0.544622 0.214012 1.11022e-18
0.545694 0.216036 1.11022e-18
0.546744 0.218071 1.11022e-18
0.547716 0.22 1.11022e-18
0.548173 0.220929 1.11022e-18
0.548625 0.22186 1.11022e-18
0.549074 0.222793 1.11022e-18
0.549518 0.223727 1.11022e-18
0.55 0.224754 1.11022e-18
0.550487 0.225803 1.11022e-18
0.550968 0.226855 1.11022e-18
[...]
POINT_DATA 20002
 FIELD attributes 1
U 3 20002 float
-2.17747e-19 	-8.96255e-18 	0
0.0595948 	0.128076 	0 0.0591085 	0.129041 	0 0.0586247 	0.130002 	0 0.0581434 	0.13096 	0 0.0576646 	0.131914 	0 0.0571244 	0.132991 	0 0.055881 	0.13535 	0 0.0546551 	0.137686 	0 0.0534462 	0.14 	0 0.0522539 	0.142291 	0 0.0511424 	0.144437 	0 0.0496852 	0.147693 	0 0.048257 	0.150912 	0 0.0468027 	0.153946 	0 0.0453643 	0.156916 	0 0.0440198 	0.159703 	0 0.0428255 	0.162683 	0 0.0416523 	0.165631 	0 0.0404994 	0.168547 	0 0.039366 	0.171434 	0 0.0382019 	0.174029 	0 0.0375583 	0.175821 	0 0.0369213 	0.177601 	0 0.0362906 	0.179369 	0 0.0356661 	0.181126 	0 0.0348759 	0.183357 	0 0.0345891 	0.184137 	0 0.0343036 	0.184915 	0 0.0340194 	0.185691 	0 0.0337365 	0.186465 	0 0.033456 	0.187233 	0 0.0326846 	0.189714 	0 0.031881 	0.192115 	0 0.0310883 	0.194497 	0 0.0303059 	0.196859 	0 0.0295417 	0.199179 	0 0.0290236 	0.201541 	0 0.0284129 	0.203767 	0 0.0277655 	0.205923 	0 0.0271253 	0.208063 	0 0.0264961 	0.210175 	0 0.0261154 	0.212308 	0 0.0257397 	0.21443 	0 0.0252198 	0.216377 	0 0.0246943 	0.218298 	0 0.0241756 	0.2202 	0 0.0239013 	0.222106 	0 0.0236302 	0.224003 	0 0.0233107 	0.22584 	0 0.0228745 	0.227545 	0 0.0224427 	0.229235 	0 0.0222465 	0.230917 	0 0.0220522 	0.232593 	0 0.0218599 	0.234263 	0 0.0215343 	0.235796 	0 0.021167 	0.237274 	0 0.0210233 	0.238737 	0 0.0208808 	0.240194 	0 0.0207394 	0.241647 	0 0.0205506 	0.24305 	0 0.0202272 	0.244318 	0 0.0201133 	0.245565 	0 0.0200002 	0.246808 	0 0.0198878 	0.248048 	0 0.0197762 	0.249283 	0 0.0195125 	0.250374 	0 0.0194088 	0.251411 	0 0.0193056 	0.252444 	0 0.0192029 	0.253473 	0 0.0191006 	0.2545 	0 0.018924 	0.255455 	0 0.0188141 	0.256281 	0 0.0187044 	0.257104 	0 0.0185951 	0.257924 	0 0.0184862 	0.258741 	0 0.018374 	0.259573 	0 0.0183721 	0.259582 	0 0.0183703 	0.259591 	0 0.0183685 	0.259599 	0 0.0183667 	0.259608 	0 0.0183649 	0.259617 	0 0.0182365 	0.260171 	0 0.0181084 	0.260722 	0 0.0179804 	0.261271 	0 0.0178525 	0.261817 	0 0.0177249 	0.26236 	0 0.017627 	0.262787 	0 0.0174637 	0.26315 	0 0.0173005 	0.263511 	0 0.0171373 	0.263869 	0 0.0169742 	0.264223 	0 0.0168942 	0.264522 	0 0.0166886 	0.264693 	0 0.0164828 	0.264861 	0 0.016277 	0.265026 	0 0.0160711 	0.265187 	0 0.0159867 	0.265351 	0 0.015741 	0.265343 	0 0.0154861 	0.265322 	0 0.0152308 	0.265296 	0 0.0149754 	0.265266 	0 0.014833 	0.265249 	0 0.0145847 	0.265111 	0 0.0142762 	0.264903 	0 0.0139671 	0.26469 	0 0.0136576 	0.264471 	0 0.0134543 	0.264271 	0 0.0131935 	0.264002 	0 0.0128289 	0.263609 	0 0.0124634 	0.26321 	0 0.0120972 	0.262804 	0 0.0118319 	0.262421 	0 0.0115495 	0.262013 	0 0.0111279 	0.261438 	0 0.0107051 	0.260854 	0 0.0102812 	0.260262 	0 0.00995375 	0.259694 	0 0.00962536 	0.259119 	0 0.00916309 	0.25838 	0 0.00868309 	0.257612 	0 0.00820162 	0.256836 	0 0.00781278 	0.256078 	0 0.00742257 	0.255313 	0 0.00692846 	0.25442 	0 0.00639225 	0.253469 	0 0.00585404 	0.252508 	0 0.00540489 	0.251558 	0 0.00495385 	0.250598 	0 0.00442044 	0.249538 	0 0.00382921 	0.248402 	0 0.00323533 	0.247255 	0 0.00272689 	0.246107 	0 0.00221595 	0.244948 	0 0.00163565 	0.243706 	0 0.000990351 	0.242385 	0 0.000341573 	0.241048 	0 -0.00022564 	0.239697 	0 -0.000796088 	0.238333 	0 -0.00143121 	0.236895 	0 -0.00213048 	0.235382 	0 -0.00283427 	0.233852 	0 -0.00346064 	0.232291 	0 -0.00409112 	0.230714 	0 -0.00478962 	0.229066 	0 -0.00554396 	0.227356 	0 -0.00630419 	0.225625 	0 -0.00699162 	0.223844 	0 -0.00768427 	0.222043 	0 -0.0084558 	0.220174 	0 -0.00926799 	0.218258 	0 -0.0100879 	0.216316 	0 -0.0108405 	0.214303 	0 -0.0115996 	0.212265 	0 -0.0124554 	0.210164 	0 -0.0133304 	0.208029 	0 -0.0142158 	0.205861 	0 -0.0150401 	0.203599 	0 -0.0158907 	0.201305 	0 -0.0168262 	0.198967 	0 -0.017772 	0.196596 	0 -0.0187321 	0.19418 	0 -0.0196384 	0.191646 	0 -0.0206071 	0.189087 	0 -0.0216227 	0.186495 	0 -0.0226512 	0.183862 	0 -0.0237002 	0.181168 	0 -0.0247134 	0.178336 	0 -0.0258099 	0.175506 	0 -0.0269224 	0.172626 	0 -0.0280514 	0.169696 	0 -0.0292114 	0.166677 	0 -0.0295453 	0.165751 	0 -0.029896 	0.16484 	0 -0.0302485 	0.163924 	0 -0.0306027 	0.163003 	0 -0.0309019 	0.162225 	0 -0.0317573 	0.159936 	0 -0.0326225 	0.157614 	0 -0.033498 	0.15526 	0 -0.0343839 	0.152872 	0 -0.0353178 	0.150518 	0 -0.0366117 	0.14705 	0 -0.0379294 	0.143508 	0 -0.039272 	0.139888 	0 -0.040655 	0.136314 	0 -0.042129 	0.132612 	0 -0.0435987 	0.128674 	0 -0.0451006 	0.124638 	0 -0.0466451 	0.120708 	0 -0.048227 	0.11673 	0 -0.0499646 	0.112344 	0 -0.0508269 	0.110047 	0 -0.0516992 	0.107791 	0 -0.0525813 	0.105589 	0 -0.0534749 	0.103355 	0 -0.0541209 	0.101738 	0 -0.0550755 	0.0992877 	0 -0.0560423 	0.0968005 	0 -0.0570216 	0.0942749 	0 -0.0579988 	0.0918522 	0 -0.0590886 	0.08918 	0 -0.061074 	0.0841181 	0 -0.0631085 	0.0789086 	0 -0.0651344 	0.07393 	0 -0.0672019 	0.0688374 	0 -0.0685483 	0.0655022 	0 -0.0688562 	0.0647265 	0 -0.0691648 	0.0639481 	0 -0.069467 	0.0631994 	0 -0.0697641 	0.0624739 	0 -0.0700886 	0.061681 	0 -0.0719336 	0.0570675 	0 -0.0737997 	0.0523768 	0 -0.0756493 	0.0477381 	0 -0.0774428 	0.0432865 	0 -0.0785945 	0.040411 	0 -0.0797965 	0.0373503 	0 -0.0809732 	0.0343456 	0 -0.0820909 	0.0314899 	0 -0.0832048 	0.0286301 	0 -0.0854418 	0.0228586 	0 -0.0855479 	0.0225805 	0 -0.0856538 	0.0223024 	0 -0.0857597 	0.0220245 	0 -0.0858651 	0.0217475 	0 -0.0859612 	0.0214924 	0 -0.087108 	0.0183454 	0 -0.088243 	0.0152139 	0 -0.0893647 	0.0121021 	0 -0.0904719 	0.00901352 	0 -0.091392 	0.00634733 	0 -0.0922597 	0.00366368 	0 -0.0931154 	0.00100218 	0 -0.0939587 	-0.00163545 	0 -0.0947808 	-0.00423361 	0 -0.0954933 	-0.0066336 	0 -0.0961391 	-0.00903435 	0 -0.096775 	-0.0114128 	0 -0.0974011 	-0.0137683 	0 -0.0980173 	-0.0161002 	0 -0.0985905 	-0.01839 	0 -0.0988079 	-0.0194468 	0 -0.0990237 	-0.020499 	0 -0.099238 	-0.0215464 	0 -0.0994507 	-0.0225891 	0 -0.0995702 	-0.0231771 	0 -0.0998185 	-0.0244376 	0 -0.100064 	-0.0256914 	0 -0.100307 	-0.0269386 	0 -0.100548 	-0.028179 	0 -0.100792 	-0.0294475 	0 -0.101137 	-0.0317084 	0 -0.101408 	-0.0338277 	0 -0.101671 	-0.035925 	0 -0.10193 	-0.0380038 	0 -0.102199 	-0.040189 	0 -0.102372 	-0.0423614 	0 -0.102541 	-0.0445123 	0 -0.102704 	-0.0466417 	0 -0.102863 	-0.0487496 	0 -0.102983 	-0.0509073 	0 -0.102985 	-0.0512739 	0 -0.102986 	-0.0516398 	0 -0.102988 	-0.0520052 	0 -0.102989 	-0.05237 	0 -0.10299 	-0.0527138 	0 -0.102965 	-0.0544863 	0 -0.102938 	-0.0562463 	0 -0.102908 	-0.0579938 	0 -0.102877 	-0.0597287 	0 -0.102842 	-0.0615771 	0 -0.102694 	-0.0635577 	0 -0.102545 	-0.0655208 	0 -0.102395 	-0.0674664 	0 -0.102244 	-0.0693944 	0 -0.102124 	-0.0708912 	0 -0.102093 	-0.0712054 	0 -0.102061 	-0.0715193 	0 -0.10203 	-0.0718326 	0 -0.101999 	-0.0721456 	0 -0.101967 	-0.072463 	0 -0.101601 	-0.0747089 	0 -0.101228 	-0.0769166 	0 -0.100838 	-0.0790597 	0 -0.100449 	-0.0811867 	0 -0.100015 	-0.0835525 	0 -0.0999181 	-0.0839182 	0 -0.0998213 	-0.0842833 	0 -0.0997247 	-0.084648 	0 -0.0996281 	-0.0850121 	0 -0.0995347 	-0.0853645 	0 -0.0990184 	-0.0872812 	0 -0.0985046 	-0.0891862 	0 -0.0979933 	-0.0910794 	0 -0.0974846 	-0.0929608 	0 -0.0969164 	-0.0950591 	0 -0.0967092 	-0.0956235 	0 -0.0965024 	-0.0961866 	0 -0.096296 	-0.0967487 	0 -0.0960901 	-0.0973096 	0 -0.0958929 	-0.097847 	0 -0.0952374 	-0.0997 	0 -0.0945861 	-0.101543 	0 -0.0939391 	-0.103377 	0 -0.0932964 	-0.1052 	0 -0.0925701 	-0.107263 	0 -0.0923886 	-0.107654 	0 -0.0922073 	-0.108045 	0 -0.0920264 	-0.108435 	0 -0.0918459 	-0.108825 	0 -0.0916699 	-0.109205 	0 -0.0907253 	-0.111411 	0 -0.0897904 	-0.113606 	0 -0.0888651 	-0.11579 	0 -0.0879494 	-0.117963 	0 -0.0871078 	-0.119843 	0 -0.0870528 	-0.119976 	0 -0.0869978 	-0.120109 	0 -0.0869429 	-0.120242 	0 -0.086888 	-0.120375 	0 -0.0868325 	-0.120509 	0 -0.0858661 	-0.122338 	0 -0.0849076 	-0.124156 	0 -0.083957 	-0.125962 	0 -0.0830144 	-0.127758 	0 -0.0821568 	-0.129394 	0 -0.0816281 	-0.130533 	0 -0.0811021 	-0.131667 	0 -0.0805789 	-0.132799 	0 -0.0800584 	-0.133927 	0 -0.0794826 	-0.135177 	0 -0.0790565 	-0.135897 	0 -0.0786322 	-0.136615 	0 -0.0782098 	-0.137333 	0 -0.0777891 	-0.138049 	0 -0.0773815 	-0.138746 	0 -0.0764284 	-0.140634 	0 -0.075486 	-0.142517 	0 -0.0745304 	-0.144336 	0 -0.0735408 	-0.146042 	0 -0.0726147 	-0.147641 	0 -0.0721919 	-0.148495 	0 -0.0717707 	-0.149346 	0 -0.0713513 	-0.150196 	0 -0.0709335 	-0.151043 	0 -0.0704775 	-0.15197 	0 -0.0699657 	-0.152778 	0 -0.0694564 	-0.153585 	0 -0.0689497 	-0.154391 	0 -0.0684455 	-0.155196 	0 -0.0679546 	-0.155982 	0 -0.067066 	-0.157693 	0 -0.0661867 	-0.159401 	0 -0.0652319 	-0.160916 	0 -0.0642771 	-0.162408 	0 -0.0633633 	-0.16384 	0 -0.0625892 	-0.165316 	0 -0.0618207 	-0.166786 	0 -0.0610577 	-0.168252 	0 -0.0603001 	-0.169711 	0 -0.0594013 	-0.171449 	0 -0.0593461 	-0.171532 	0 -0.0592909 	-0.171614 	0 -0.0592357 	-0.171696 	0 -0.0591805 	-0.171779 	0 -0.0591254 	-0.171861 	0 -0.0582247 	-0.173178 	0 -0.0573123 	-0.174454 	0 -0.0564061 	-0.175726 	0 -0.055506 	-0.176994 	0 -0.0546325 	-0.178229 	0 -0.0538408 	-0.179664 	0 -0.053055 	-0.181096 	0 -0.0522136 	-0.182398 	0 -0.0513148 	-0.183567 	0 -0.0504371 	-0.184708 	0 -0.0496519 	-0.186039 	0 -0.0488711 	-0.187365 	0 -0.0480947 	-0.188685 	0 -0.0473225 	-0.19 	0 -0.0464814 	-0.19112 	0 -0.0461718 	-0.191594 	0 -0.0458626 	-0.192068 	0 -0.0455539 	-0.19254 	0 -0.0452456 	-0.193011 	0 -0.0449105 	-0.193523 	0 -0.0444184 	-0.194082 	0 -0.0439277 	-0.194641 	0 -0.0434385 	-0.195199 	0 -0.0429506 	-0.195757 	0 -0.0424674 	-0.19631 	0 -0.041758 	-0.197382 	0 -0.040929 	-0.198206 	0 -0.040103 	-0.199026 	0 -0.0392798 	-0.199843 	0 -0.0384676 	-0.200649 	0 -0.0377803 	-0.201639 	0 -0.0370956 	-0.202627 	0 -0.0362814 	-0.203348 	0 -0.0354535 	-0.204033 	0 -0.034634 	-0.204708 	0 -0.0339457 	-0.205561 	0 -0.0332593 	-0.20641 	0 -0.0325747 	-0.207254 	0 -0.0317622 	-0.207838 	0 -0.0309353 	-0.208371 	0 -0.0302437 	-0.209073 	0 -0.0295531 	-0.20977 	0 -0.0288635 	-0.210461 	0 -0.0281744 	-0.211145 	0 -0.0273408 	-0.211529 	0 -0.0266437 	-0.212069 	0 -0.025947 	-0.212603 	0 -0.0252507 	-0.21313 	0 -0.0245549 	-0.213651 	0 -0.0238195 	-0.21408 	0 -0.023494 	-0.214251 	0 -0.0231685 	-0.214421 	0 -0.022843 	-0.214589 	0 -0.0225174 	-0.214755 	0 -0.0221426 	-0.214945 	0 -0.0217644 	-0.215049 	0 -0.0213864 	-0.215152 	0 -0.0210084 	-0.215255 	0 -0.0206306 	-0.215357 	0 -0.0202537 	-0.215458 	0 -0.01957 	-0.215605 	0 -0.0188409 	-0.215659 	0 -0.0181118 	-0.21571 	0 -0.0173825 	-0.215758 	0 -0.0166553 	-0.215801 	0 -0.0160363 	-0.215934 	0 -0.0152983 	-0.215835 	0 -0.0145597 	-0.215732 	0 -0.0138204 	-0.215623 	0 -0.0130823 	-0.215511 	0 -0.0124877 	-0.215546 	0 -0.0117553 	-0.215323 	0 -0.0110031 	-0.215059 	0 -0.0102498 	-0.21479 	0 -0.00949669 	-0.214515 	0 -0.00888281 	-0.214371 	0 -0.00817281 	-0.214053 	0 -0.00740209 	-0.213625 	0 -0.00662964 	-0.213189 	0 -0.00585641 	-0.212747 	0 -0.00521691 	-0.212413 	0 -0.00450796 	-0.211962 	0 -0.00371249 	-0.211363 	0 -0.00291467 	-0.210756 	0 -0.00211509 	-0.210141 	0 -0.00144289 	-0.209609 	0 -0.000713294 	-0.208987 	0 0.000114084 	-0.208213 	0 0.000944515 	-0.207429 	0 0.00177788 	-0.206635 	0 0.00249074 	-0.205897 	0 0.00326334 	-0.205074 	0 0.0041312 	-0.204119 	0 0.00500295 	-0.203152 	0 0.00587913 	-0.202172 	0 0.00664194 	-0.201218 	0 0.00748145 	-0.20017 	0 0.00840029 	-0.199025 	0 0.00932407 	-0.197867 	0 0.0102543 	-0.196693 	0 0.0110782 	-0.19551 	0 0.0120113 	-0.194221 	0 0.0129937 	-0.192877 	0 0.0139823 	-0.191518 	0 0.0149804 	-0.190138 	0 0.0158824 	-0.188711 	0 0.0169354 	-0.187175 	0 0.0179962 	-0.185622 	0 0.019065 	-0.184049 	0 0.0201477 	-0.182449 	0 0.0212049 	-0.180741 	0 0.0223517 	-0.178984 	0 0.0235087 	-0.177206 	0 0.0246759 	-0.175406 	0 0.0256234 	-0.173939 	0 0.0256712 	-0.173859 	0 0.0257191 	-0.173779 	0 0.0257669 	-0.173699 	0 0.0258148 	-0.173619 	0 0.0258655 	-0.17354 	0 0.027091 	-0.171466 	0 0.0283277 	-0.169361 	0 0.029576 	-0.167223 	0 0.0308361 	-0.165053 	0 0.0322075 	-0.162891 	0 0.0335544 	-0.160538 	0 0.0349156 	-0.158149 	0 0.0362917 	-0.155722 	0 0.0377474 	-0.153342 	0 0.0393036 	-0.150928 	0 0.0407979 	-0.148264 	0 0.0423107 	-0.145558 	0 0.0439133 	-0.14293 	0 0.0455809 	-0.140335 	0 0.04734 	-0.137584 	0 0.0488677 	-0.134837 	0 0.0504954 	-0.132218 	0 0.0521752 	-0.129624 	0 0.0538766 	-0.126988 	0 0.0548937 	-0.125407 	0 0.0552149 	-0.124862 	0 0.0555368 	-0.124314 	0 0.0558593 	-0.123765 	0 0.0561907 	-0.123242 	0 0.0565358 	-0.122734 	0 0.0584458 	-0.119542 	0 0.0603794 	-0.116295 	0 0.0623367 	-0.112994 	0 0.0644008 	-0.10994 	0 0.0667652 	-0.106494 	0 0.0681631 	-0.104161 	0 0.0695777 	-0.101826 	0 0.0710685 	-0.0997171 	0 0.07257 	-0.0975884 	0 0.0736659 	-0.0960311 	0 0.0746145 	-0.0945338 	0 0.0755657 	-0.0930278 	0 0.0765255 	-0.0915433 	0 0.0775166 	-0.0901915 	0 0.0786238 	-0.0886764 	0 0.0804692 	-0.0858108 	0 0.0823229 	-0.0829239 	0 0.0842335 	-0.0802503 	0 0.0861761 	-0.077684 	0 0.0875942 	-0.0758037 	0 0.0884529 	-0.0745086 	0 0.0893108 	-0.0732105 	0 0.0901858 	-0.0720137 	0 0.0910683 	-0.0708636 	0 0.0920948 	-0.0695211 	0 0.0933677 	-0.0676414 	0 0.0946386 	-0.0657603 	0 0.0959139 	-0.0639137 	0 0.0972274 	-0.0622785 	0 0.0983621 	-0.060862 	0 0.100025 	-0.0583953 	0 0.101679 	-0.0559548 	0 0.103362 	-0.0537992 	0 0.105032 	-0.0516446 	0 0.106991 	-0.0490974 	0 0.107083 	-0.0489513 	0 0.107175 	-0.0488127 	0 0.107268 	-0.048684 	0 0.10736 	-0.0485554 	0 0.107456 	-0.0484227 	0 0.108719 	-0.0464767 	0 0.10997 	-0.0445356 	0 0.11121 	-0.0426 	0 0.112456 	-0.0408086 	0 0.113609 	-0.039279 	0 0.114676 	-0.0373906 	0 0.115729 	-0.0355065 	0 0.116778 	-0.0337967 	0 0.117819 	-0.032169 	0 0.118791 	-0.0306312 	0 0.119592 	-0.0288381 	0 0.120376 	-0.0272213 	0 0.121146 	-0.0256608 	0 0.121904 	-0.0241016 	0 0.122622 	-0.0225972 	0 0.122871 	-0.0218041 	0 0.123111 	-0.0210895 	0 0.123348 	-0.0203748 	0 0.123583 	-0.0196601 	0 0.123905 	-0.0186666 	0 0.124137 	-0.0178766 	0 0.124367 	-0.0170872 	0 0.124593 	-0.0162984 	0 0.124818 	-0.0155103 	0 0.125038 	-0.0147985 	0 0.125279 	-0.0131895 	0 0.125509 	-0.0115809 	0 0.125728 	-0.009973 	0 0.125936 	-0.00836609 	0 0.126124 	-0.00694479 	0 0.126108 	-0.00527491 	0 0.12608 	-0.00360408 	0 0.126041 	-0.00193257 	0 0.125991 	-0.000260686 	0 0.125915 	0.00120249 	0 0.12563 	0.00296204 	0 0.125333 	0.00472404 	0 0.125026 	0.00648814 	0 0.124707 	0.00825402 	0 0.124357 	0.00986012 	0 0.12379 	0.0117345 	0 0.123212 	0.013613 	0 0.122622 	0.0154952 	0 0.122021 	0.0173806 	0 0.121392 	0.0192507 	0 0.121166 	0.0197786 	0 0.120939 	0.020307 	0 0.120711 	0.0208357 	0 0.120482 	0.0213648 	0 0.120311 	0.0217582 	0 0.119633 	0.0233128 	0 0.118947 	0.0248725 	0 0.118254 	0.0264371 	0 0.117553 	0.0280063 	0 0.116825 	0.0296237 	0 0.115643 	0.0320609 	0 0.114423 	0.0343304 	0 0.11319 	0.036601 	0 0.111947 	0.0388821 	0 0.110612 	0.0413177 	0 0.109072 	0.0439841 	0 0.107523 	0.0466569 	0 0.105965 	0.0493341 	0 0.104399 	0.0520142 	0 0.102634 	0.0548563 	0 0.10225 	0.0554486 	0 0.101865 	0.056041 	0 0.101481 	0.0566337 	0 0.101097 	0.0572266 	0 0.100754 	0.0577556 	0 0.0991443 	0.0603099 	0 0.0975352 	0.0628704 	0 0.0959274 	0.0654355 	0 0.094322 	0.0680035 	0 0.0924472 	0.07101 	0 0.0909445 	0.0733074 	0 0.089449 	0.0756005 	0 0.0879614 	0.0778881 	0 0.0864826 	0.0801689 	0 0.0854005 	0.0818426 	0 0.0842774 	0.0836677 	0 0.0831604 	0.0854889 	0 0.0820496 	0.0873057 	0 0.0809454 	0.0891176 	0 0.079646 	0.0912569 	0 0.0781814 	0.0935445 	0 0.0767315 	0.0958203 	0 0.0752966 	0.0980837 	0 0.073877 	0.100334 	0 0.0727042 	0.102202 	0 0.0709142 	0.105259 	0 0.0691516 	0.108295 	0 0.0674166 	0.111307 	0 0.0657091 	0.114294 	0 0.063337 	0.118477 	0 0.0630708 	0.118926 	0 0.0628054 	0.119373 	0 0.0625407 	0.11982 	0 0.0622767 	0.120267 	0 0.062018 	0.120705 	0 0.0600464 	0.124303 	0 0.0580994 	0.127772 	0 0.0561937 	0.131197 	0 0.0543282 	0.134578 	0 0.0526976 	0.137558 	0 0.0510892 	0.140889 	0 0.0495146 	0.144184 	0 0.0479724 	0.147444 	0 0.0464614 	0.150669 	0 0.045022 	0.153506 	0 0.0444313 	0.154868 	0 0.0438455 	0.156224 	0 0.0432645 	0.157573 	0 0.0426883 	0.158916 	0 0.0419944 	0.16054 	0 0.0412973 	0.1621 	0 0.0406072 	0.163652 	0 0.039924 	0.165196 	0 0.0392476 	0.166732 	0 0.0385881 	0.168237 	0 0.0375335 	0.171147 	0 0.0364223 	0.173889 	0 0.0353297 	0.176606 	0 0.0342552 	0.179299 	0 0.0332191 	0.181915 	0 0.0324007 	0.184628 	0 0.0315965 	0.187322 	0 0.0307037 	0.189836 	0 0.0298143 	0.192314 	0 0.0289474 	0.194744 	0 0.0283176 	0.197239 	0 0.0276974 	0.199718 	0 0.0270844 	0.20218 	0 0.0263504 	0.204449 	0 0.0256301 	0.206686 	0 0.0251564 	0.208963 	0 0.0246892 	0.211228 	0 0.0242282 	0.213482 	0 0.0237268 	0.215668 	0 0.0231305 	0.217707 	0 0.0227828 	0.219766 	0 0.0224392 	0.221816 	0 0.0220997 	0.223857 	0 0.0217641 	0.22589 	0 0.0213142 	0.227777 	0 0.0210639 	0.229619 	0 0.0208163 	0.231455 	0 0.0205713 	0.233284 	0 0.0203289 	0.235106 	0 0.0200497 	0.236878 	0 0.0199618 	0.237676 	0 0.0198744 	0.238473 	0 0.0197874 	0.239269 	0 0.0197007 	0.240063 	0 0.0196077 	0.240918 	0 0.019521 	0.241696 	0 0.0194347 	0.242473 	0 0.0193487 	0.243249 	0 0.0192632 	0.244024 	0 0.019178 	0.244798 	0 0.0190892 	0.246177 	0 0.0189606 	0.247525 	0 0.0188329 	0.248869 	0 0.0187062 	0.250211 	0 0.0185806 	0.251548 	0 0.0185953 	0.252778 	0 0.0184919 	0.253919 	0 0.0183891 	0.255057 	0 0.018287 	0.256194 	0 0.0181855 	0.257327 	0 0.0182757 	0.258409 	0 0.0181827 	0.259351 	0 0.0180864 	0.260287 	0 0.0179904 	0.261221 	0 0.0178949 	0.262152 	0 0.0179739 	0.263042 	0 0.0179405 	0.263841 	0 0.0178346 	0.264578 	0 0.017729 	0.265313 	0 0.0176237 	0.266046 	0 0.0176769 	0.266749 	0 0.017685 	0.267411 	0 0.0175561 	0.267954 	0 0.0174273 	0.268494 	0 0.0172988 	0.269032 	0 0.0173144 	0.26955 	0 0.01733 	0.270069 	0 0.0171849 	0.270437 	0 0.0170219 	0.270785 	0 0.0168589 	0.271131 	0 0.0168278 	0.271469 	0 0.0167967 	0.271806 	0 0.016667 	0.272045 	0 0.016461 	0.272205 	0 0.016255 	0.272362 	0 0.0161704 	0.272522 	0 0.0160858 	0.27268 	0 0.0159596 	0.272793 	0 0.0157044 	0.272768 	0 0.0154491 	0.272739 	0 0.0153067 	0.272722 	0 0.0151641 	0.272703 	0 0.0150214 	0.272681 	0 0.0147225 	0.272484 	0 0.0144136 	0.272271 	0 0.0142109 	0.272078 	0 0.0140079 	0.271881 	0 0.0138046 	0.27168 	0 0.0134947 	0.271354 	0 0.01313 	0.27096 	0 0.0128662 	0.270589 	0 0.0126019 	0.270214 	0 0.0123369 	0.269833 	0 0.012008 	0.269374 	0 0.011587 	0.268801 	0 0.0112624 	0.268251 	0 0.010937 	0.267695 	0 0.0106106 	0.267134 	0 0.0102553 	0.266533 	0 0.00977843 	0.265782 	0 0.00939424 	0.265051 	0 0.00900874 	0.264313 	0 0.00862193 	0.263567 	0 0.00823335 	0.262813 	0 0.00770188 	0.261886 	0 0.00725961 	0.26097 	0 0.00681555 	0.260046 	0 0.0063697 	0.259113 	0 0.00592204 	0.258171 	0 0.00535641 	0.257088 	0 0.0048576 	0.255985 	0 0.00435646 	0.254872 	0 0.00385297 	0.253748 	0 0.00334709 	0.252612 	0 0.00274097 	0.251362 	0 0.00218677 	0.250067 	0 0.0016296 	0.24876 	0 0.00106941 	0.24744 	0 0.000506154 	0.246106 	0 -0.000147617 	0.244675 	0 -0.000756785 	0.243183 	0 -0.00136969 	0.241677 	0 -0.00198641 	0.240155 	0 -0.00260701 	0.238617 	0 -0.0033162 	0.236993 	0 -0.00398124 	0.235297 	0 -0.00465094 	0.233584 	0 -0.00532541 	0.231853 	0 -0.00600475 	0.230103 	0 -0.00677813 	0.228274 	0 -0.00750171 	0.226366 	0 -0.0082311 	0.224436 	0 -0.00896644 	0.222485 	0 -0.00970788 	0.220512 	0 -0.0105556 	0.21847 	0 -0.0113425 	0.216337 	0 -0.0121366 	0.214179 	0 -0.0129382 	0.211995 	0 -0.0137694 	0.209781 	0 -0.0146817 	0.207522 	0 -0.0155393 	0.205148 	0 -0.0164062 	0.202744 	0 -0.0172825 	0.200309 	0 -0.0182178 	0.197851 	0 -0.0192037 	0.195355 	0 -0.0201433 	0.192719 	0 -0.0210946 	0.190046 	0 -0.0220606 	0.187336 	0 -0.0231135 	0.184637 	0 -0.0241881 	0.181875 	0 -0.0252258 	0.178945 	0 -0.0262786 	0.175969 	0 -0.0273887 	0.173001 	0 -0.0285426 	0.170018 	0 -0.0297289 	0.166944 	0 -0.0308883 	0.163675 	0 -0.0320872 	0.160393 	0 -0.0333466 	0.157139 	0 -0.034629 	0.153822 	0 -0.0359636 	0.150363 	0 -0.0370271 	0.147401 	0 -0.0381459 	0.144534 	0 -0