# vtk DataFile Version 2.0
track0
ASCII
DATASET POLYDATA
POINTS 20002 float
1.11022e-18 0.5 1.11022e-18
0.391304 0.5 1.11022e-18
0.391043 0.499568 1.11022e-18
0.390785 0.499134 1.11022e-18
0.390528 0.498699 1.11022e-18
0.390274 0.498263 1.11022e-18
0.39 0.497786 1.11022e-18
0.389115 0.496229 1.11022e-18
0.388258 0.494656 1.11022e-18
0.38743 0.493068 1.11022e-18
0.386628 0.491466 1.11022e-18
0.385925 0.49 1.11022e-18
0.385002 0.488 1.11022e-18
0.384119 0.485982 1.11022e-18
0.383274 0.483947 1.11022e-18
0.382468 0.481897 1.11022e-18
0.38176 0.48 1.11022e-18
0.381408 0.479011 1.11022e-18
0.381064 0.478019 1.11022e-18
0.380728 0.477025 1.11022e-18
0.380399 0.476028 1.11022e-18
0.38 0.474783 1.11022e-18
0.379703 0.473827 1.11022e-18
0.379412 0.472868 1.11022e-18
0.379128 0.471907 1.11022e-18
0.378851 0.470945 1.11022e-18
0.378586 0.47 1.11022e-18
0.378038 0.468 1.11022e-18
0.377518 0.465993 1.11022e-18
0.377024 0.463979 1.11022e-18
0.376555 0.461959 1.11022e-18
0.376125 0.46 1.11022e-18
0.37571 0.458 1.11022e-18
0.375318 0.455995 1.11022e-18
0.374947 0.453987 1.11022e-18
0.374598 0.451974 1.11022e-18
0.374276 0.45 1.11022e-18
0.373968 0.448 1.11022e-18
0.37368 0.445997 1.11022e-18
0.373411 0.443992 1.11022e-18
0.373159 0.441984 1.11022e-18
0.372927 0.44 1.11022e-18
0.372709 0.438 1.11022e-18
0.372508 0.435998 1.11022e-18
0.372322 0.433995 1.11022e-18
0.372151 0.431991 1.11022e-18
0.371996 0.43 1.11022e-18
0.371853 0.428 1.11022e-18
0.371725 0.425999 1.11022e-18
0.371609 0.423997 1.11022e-18
0.371506 0.421995 1.11022e-18
0.371416 0.42 1.11022e-18
0.371337 0.418 1.11022e-18
0.371269 0.416 1.11022e-18
0.371213 0.413999 1.11022e-18
0.371167 0.411998 1.11022e-18
0.371132 0.41 1.11022e-18
0.371107 0.408 1.11022e-18
0.371091 0.406 1.11022e-18
0.371084 0.404 1.11022e-18
0.371087 0.402 1.11022e-18
0.371098 0.4 1.11022e-18
0.371117 0.398 1.11022e-18
0.371145 0.396 1.11022e-18
0.371179 0.394 1.11022e-18
0.371222 0.392001 1.11022e-18
0.371271 0.39 1.11022e-18
0.371328 0.388 1.11022e-18
0.371391 0.386 1.11022e-18
0.37146 0.384001 1.11022e-18
0.371535 0.382001 1.11022e-18
0.371616 0.38 1.11022e-18
0.371703 0.378 1.11022e-18
0.371795 0.376 1.11022e-18
0.371892 0.374001 1.11022e-18
0.371993 0.372001 1.11022e-18
0.372099 0.37 1.11022e-18
0.372209 0.368 1.11022e-18
0.372323 0.366 1.11022e-18
0.372441 0.364001 1.11022e-18
0.372562 0.362001 1.11022e-18
0.372686 0.36 1.11022e-18
0.372815 0.358 1.11022e-18
0.372945 0.356 1.11022e-18
0.373078 0.354 1.11022e-18
0.373213 0.352001 1.11022e-18
0.373351 0.35 1.11022e-18
0.373492 0.348 1.11022e-18
0.373633 0.346 1.11022e-18
0.373776 0.344 1.11022e-18
0.373919 0.342 1.11022e-18
0.374065 0.34 1.11022e-18
0.374213 0.338 1.11022e-18
0.37436 0.336 1.11022e-18
0.374508 0.334 1.11022e-18
0.374656 0.332 1.11022e-18
0.374805 0.33 1.11022e-18
0.374955 0.328 1.11022e-18
0.375105 0.326 1.11022e-18
0.375253 0.324 1.11022e-18
0.375401 0.322 1.11022e-18
0.375549 0.32 1.11022e-18
0.375698 0.318 1.11022e-18
0.375845 0.316 1.11022e-18
0.375991 0.314 1.11022e-18
0.376136 0.311999 1.11022e-18
0.37628 0.31 1.11022e-18
0.376424 0.308 1.11022e-18
0.376566 0.306 1.11022e-18
0.376706 0.304 1.11022e-18
0.376845 0.301999 1.11022e-18
0.376983 0.3 1.11022e-18
0.37712 0.298 1.11022e-18
0.377254 0.296 1.11022e-18
0.377386 0.293999 1.11022e-18
0.377517 0.291999 1.11022e-18
0.377647 0.29 1.11022e-18
0.377775 0.288 1.11022e-18
0.3779 0.286 1.11022e-18
0.378023 0.283999 1.11022e-18
0.378145 0.281999 1.11022e-18
0.378265 0.28 1.11022e-18
0.378383 0.278 1.11022e-18
0.378498 0.276 1.11022e-18
0.378612 0.274 1.11022e-18
0.378724 0.271999 1.11022e-18
0.378834 0.27 1.11022e-18
0.378942 0.268 1.11022e-18
0.379048 0.266 1.11022e-18
0.379152 0.264 1.11022e-18
0.379255 0.261999 1.11022e-18
0.379355 0.26 1.11022e-18
0.379454 0.258 1.11022e-18
0.379551 0.256 1.11022e-18
0.379647 0.254 1.11022e-18
0.379741 0.251999 1.11022e-18
0.379833 0.25 1.11022e-18
0.379867 0.249267 1.11022e-18
0.3799 0.248534 1.11022e-18
0.379933 0.2478 1.11022e-18
0.379966 0.247067 1.11022e-18
0.38 0.246296 1.11022e-18
0.380056 0.245037 1.11022e-18
0.380111 0.243778 1.11022e-18
0.380166 0.242518 1.11022e-18
0.380221 0.241259 1.11022e-18
0.380275 0.24 1.11022e-18
0.38036 0.238 1.11022e-18
0.380445 0.236 1.11022e-18
0.38053 0.234 1.11022e-18
0.380613 0.232 1.11022e-18
0.380696 0.23 1.11022e-18
0.380779 0.228 1.11022e-18
0.380863 0.226 1.11022e-18
0.380946 0.224 1.11022e-18
0.38103 0.222 1.11022e-18
0.381114 0.22 1.11022e-18
0.381199 0.218 1.11022e-18
0.381285 0.216 1.11022e-18
0.381372 0.214 1.11022e-18
0.381461 0.212 1.11022e-18
0.381551 0.21 1.11022e-18
0.381644 0.208 1.11022e-18
0.381739 0.206 1.11022e-18
0.381836 0.204 1.11022e-18
0.381936 0.202001 1.11022e-18
0.382039 0.2 1.11022e-18
0.382146 0.198 1.11022e-18
0.382258 0.196 1.11022e-18
0.382374 0.194001 1.11022e-18
0.382494 0.192001 1.11022e-18
0.382619 0.19 1.11022e-18
0.382751 0.188 1.11022e-18
0.382889 0.186 1.11022e-18
0.383033 0.184001 1.11022e-18
0.383185 0.182003 1.11022e-18
0.383345 0.18 1.11022e-18
0.383514 0.178 1.11022e-18
0.383692 0.176001 1.11022e-18
0.38388 0.174003 1.11022e-18
0.384077 0.172005 1.11022e-18
0.384288 0.17 1.11022e-18
0.384512 0.168 1.11022e-18
0.384749 0.166002 1.11022e-18
0.385 0.164005 1.11022e-18
0.385266 0.16201 1.11022e-18
0.385552 0.16 1.11022e-18
0.385855 0.158 1.11022e-18
0.386177 0.156003 1.11022e-18
0.38652 0.15401 1.11022e-18
0.386886 0.15202 1.11022e-18
0.387283 0.15 1.11022e-18
0.387704 0.148 1.11022e-18
0.388152 0.146006 1.11022e-18
0.388632 0.14402 1.11022e-18
0.389145 0.142041 1.11022e-18
0.389713 0.14 1.11022e-18
0.389771 0.139809 1.11022e-18
0.389828 0.139617 1.11022e-18
0.389886 0.139426 1.11022e-18
0.389945 0.139235 1.11022e-18
0.39 0.139056 1.11022e-18
0.390563 0.137245 1.11022e-18
0.391161 0.135445 1.11022e-18
0.391798 0.133659 1.11022e-18
0.392474 0.131887 1.11022e-18
0.393247 0.13 1.11022e-18
0.39413 0.128 1.11022e-18
0.395077 0.12603 1.11022e-18
0.396094 0.124095 1.11022e-18
0.397182 0.122199 1.11022e-18
0.39856 0.12 1.11022e-18
0.398848 0.119588 1.11022e-18
0.399141 0.11918 1.11022e-18
0.399438 0.118774 1.11022e-18
0.399739 0.118372 1.11022e-18
0.4 0.118031 1.11022e-18
0.401253 0.116425 1.11022e-18
0.402575 0.114874 1.11022e-18
0.403967 0.113386 1.11022e-18
0.405428 0.111967 1.11022e-18
0.407648 0.11 1.11022e-18
0.408119 0.109639 1.11022e-18
0.408594 0.109286 1.11022e-18
0.409076 0.10894 1.11022e-18
0.409562 0.108601 1.11022e-18
0.41 0.108305 1.11022e-18
0.412 0.106989 1.11022e-18
0.414069 0.105786 1.11022e-18
0.416203 0.1047 1.11022e-18
0.418393 0.103732 1.11022e-18
0.42 0.103116 1.11022e-18
0.421822 0.102493 1.11022e-18
0.423668 0.101941 1.11022e-18
0.425531 0.101455 1.11022e-18
0.427411 0.101033 1.11022e-18
0.43 0.100544 1.11022e-18
0.430765 0.100435 1.11022e-18
0.431532 0.100336 1.11022e-18
0.4323 0.100245 1.11022e-18
0.433069 0.100163 1.11022e-18
0.434786 0.1 1.11022e-18
0.435829 0.0999273 1.11022e-18
0.436873 0.0998705 1.11022e-18
0.437917 0.0998293 1.11022e-18
0.438962 0.0998038 1.11022e-18
0.44 0.0997939 1.11022e-18
0.442 0.0998032 1.11022e-18
0.443999 0.0998622 1.11022e-18
0.445996 0.0999702 1.11022e-18
0.446376 0.1 1.11022e-18
0.447101 0.10006 1.11022e-18
0.447825 0.100127 1.11022e-18
0.448549 0.1002 1.11022e-18
0.449272 0.100279 1.11022e-18
0.45 0.100365 1.11022e-18
0.452 0.100619 1.11022e-18
0.453994 0.100917 1.11022e-18
0.455981 0.101259 1.11022e-18
0.45796 0.101643 1.11022e-18
0.46 0.102084 1.11022e-18
0.462 0.102563 1.11022e-18
0.463989 0.103084 1.11022e-18
0.465967 0.103647 1.11022e-18
0.467934 0.104249 1.11022e-18
0.47 0.104926 1.11022e-18
0.472 0.105628 1.11022e-18
0.473985 0.106371 1.11022e-18
0.475955 0.107154 1.11022e-18
0.477909 0.107977 1.11022e-18
0.48 0.108906 1.11022e-18
0.480467 0.109125 1.11022e-18
0.480932 0.109346 1.11022e-18
0.481397 0.109569 1.11022e-18
0.48186 0.109794 1.11022e-18
0.482279 0.11 1.11022e-18
0.483823 0.110768 1.11022e-18
0.485355 0.111559 1.11022e-18
0.486875 0.112374 1.11022e-18
0.488382 0.113212 1.11022e-18
0.49 0.114145 1.11022e-18
0.491958 0.115316 1.11022e-18
0.493893 0.116525 1.11022e-18
0.495804 0.117773 1.11022e-18
0.49769 0.119057 1.11022e-18
0.49902 0.12 1.11022e-18
0.499216 0.120143 1.11022e-18
0.499412 0.120286 1.11022e-18
0.499607 0.12043 1.11022e-18
0.499802 0.120574 1.11022e-18
0.5 0.12072 1.11022e-18
0.502 0.12221 1.11022e-18
0.503969 0.12374 1.11022e-18
0.505906 0.12531 1.11022e-18
0.507813 0.126918 1.11022e-18
0.51 0.128837 1.11022e-18
0.510254 0.12907 1.11022e-18
0.510507 0.129303 1.11022e-18
0.510759 0.129537 1.11022e-18
0.511011 0.129771 1.11022e-18
0.511255 0.13 1.11022e-18
0.513004 0.131646 1.11022e-18
0.514723 0.133324 1.11022e-18
0.516411 0.135032 1.11022e-18
0.518069 0.13677 1.11022e-18
0.52 0.138866 1.11022e-18
0.520201 0.139092 1.11022e-18
0.520401 0.13932 1.11022e-18
0.520601 0.139547 1.11022e-18
0.5208 0.139776 1.11022e-18
0.520996 0.14 1.11022e-18
0.52273 0.142 1.11022e-18
0.524426 0.144032 1.11022e-18
0.526086 0.146093 1.11022e-18
0.52771 0.148184 1.11022e-18
0.52907 0.15 1.11022e-18
0.529256 0.150256 1.11022e-18
0.529442 0.150512 1.11022e-18
0.529627 0.150768 1.11022e-18
0.529811 0.151025 1.11022e-18
0.53 0.151289 1.11022e-18
0.53124 0.153031 1.11022e-18
0.532458 0.15479 1.11022e-18
0.533652 0.156564 1.11022e-18
0.534824 0.158353 1.11022e-18
0.535874 0.16 1.11022e-18
0.536699 0.161328 1.11022e-18
0.537512 0.162662 1.11022e-18
0.538314 0.164004 1.11022e-18
0.539104 0.165353 1.11022e-18
0.54 0.166915 1.11022e-18
0.540346 0.167532 1.11022e-18
0.54069 0.16815 1.11022e-18
0.541032 0.16877 1.11022e-18
0.541372 0.169391 1.11022e-18
0.541702 0.17 1.11022e-18
0.542778 0.172 1.11022e-18
0.54383 0.174012 1.11022e-18
0.544859 0.176036 1.11022e-18
0.545867 0.178071 1.11022e-18
0.546796 0.18 1.11022e-18
0.547437 0.181365 1.11022e-18
0.548068 0.182734 1.11022e-18
0.54869 0.184107 1.11022e-18
0.549303 0.185485 1.11022e-18
0.55 0.187077 1.11022e-18
0.550251 0.187662 1.11022e-18
0.5505 0.188247 1.11022e-18
0.550747 0.188833 1.11022e-18
0.550993 0.189419 1.11022e-18
0.551235 0.19 1.11022e-18
[...]
POINT_DATA 20002
 FIELD attributes 1
U 3 20002 float
-1.7572e-19 	-8.95466e-18 	0
0.0547672 	0.0907573 	0 0.0544429 	0.091292 	0 0.0541197 	0.0918257 	0 0.0537975 	0.0923583 	0 0.0534764 	0.0928898 	0 0.0531277 	0.0934676 	0 0.051922 	0.0953513 	0 0.0507321 	0.0972207 	0 0.0495577 	0.0990757 	0 0.0483989 	0.100916 	0 0.0473611 	0.102573 	0 0.0459351 	0.104967 	0 0.0445326 	0.107339 	0 0.043153 	0.10969 	0 0.041796 	0.11197 	0 0.0405689 	0.113991 	0 0.0399236 	0.115113 	0 0.0392832 	0.116229 	0 0.0386476 	0.11734 	0 0.0380168 	0.118446 	0 0.0372372 	0.119815 	0 0.0366201 	0.120845 	0 0.0360078 	0.12187 	0 0.0354003 	0.12289 	0 0.0347974 	0.123905 	0 0.0342116 	0.124896 	0 0.0329414 	0.127134 	0 0.0316969 	0.129243 	0 0.0304715 	0.13133 	0 0.0292648 	0.133397 	0 0.0281153 	0.135376 	0 0.0269246 	0.137534 	0 0.0257511 	0.139673 	0 0.0245979 	0.141719 	0 0.0234633 	0.143693 	0 0.0223675 	0.145607 	0 0.0212446 	0.147688 	0 0.0201365 	0.14975 	0 0.0190428 	0.151795 	0 0.0179667 	0.15373 	0 0.0169196 	0.155577 	0 0.0158596 	0.157583 	0 0.0148123 	0.159572 	0 0.0137774 	0.161544 	0 0.0127549 	0.163488 	0 0.0117552 	0.165268 	0 0.0107582 	0.1672 	0 0.00977223 	0.169116 	0 0.0087969 	0.171016 	0 0.00783194 	0.172901 	0 0.00688139 	0.174652 	0 0.00595153 	0.176509 	0 0.00503106 	0.178351 	0 0.00411974 	0.18018 	0 0.00321731 	0.181994 	0 0.0023226 	0.183702 	0 0.00146688 	0.185481 	0 0.00061908 	0.187248 	0 -0.000220994 	0.189002 	0 -0.00105354 	0.190743 	0 -0.00188461 	0.192385 	0 -0.00265713 	0.194084 	0 -0.00342311 	0.195771 	0 -0.0041827 	0.197447 	0 -0.00493605 	0.199112 	0 -0.00569619 	0.200668 	0 -0.00637515 	0.202281 	0 -0.00704887 	0.203885 	0 -0.00771748 	0.205478 	0 -0.00838108 	0.207062 	0 -0.00906485 	0.208514 	0 -0.00963939 	0.210035 	0 -0.0102099 	0.211548 	0 -0.0107766 	0.213052 	0 -0.0113394 	0.214549 	0 -0.0119446 	0.215882 	0 -0.0124043 	0.217302 	0 -0.0128613 	0.218715 	0 -0.0133155 	0.220122 	0 -0.0137836 	0.221483 	0 -0.0142956 	0.222724 	0 -0.014632 	0.224032 	0 -0.0149667 	0.225335 	0 -0.0152996 	0.226634 	0 -0.015678 	0.227845 	0 -0.0160906 	0.228989 	0 -0.0162981 	0.230171 	0 -0.0165048 	0.231352 	0 -0.0167108 	0.232531 	0 -0.0170101 	0.233584 	0 -0.0173194 	0.234619 	0 -0.0173967 	0.235664 	0 -0.017474 	0.23671 	0 -0.0175817 	0.237725 	0 -0.0177874 	0.238643 	0 -0.0179925 	0.239559 	0 -0.0179435 	0.240454 	0 -0.017895 	0.24135 	0 -0.0179357 	0.242183 	0 -0.0180398 	0.242967 	0 -0.0181436 	0.243751 	0 -0.0179776 	0.244483 	0 -0.0178126 	0.24522 	0 -0.0178095 	0.245865 	0 -0.0178191 	0.246504 	0 -0.0178288 	0.247143 	0 -0.0175606 	0.247702 	0 -0.0173445 	0.248243 	0 -0.0172708 	0.248721 	0 -0.0171974 	0.249201 	0 -0.0171243 	0.249683 	0 -0.0167732 	0.250061 	0 -0.0165455 	0.250397 	0 -0.0164042 	0.250704 	0 -0.0162631 	0.251014 	0 -0.0161225 	0.251326 	0 -0.0157113 	0.251516 	0 -0.0154974 	0.251645 	0 -0.015307 	0.25177 	0 -0.015117 	0.251899 	0 -0.0149273 	0.252031 	0 -0.0145218 	0.252014 	0 -0.0143033 	0.251945 	0 -0.014085 	0.251879 	0 -0.0138668 	0.251817 	0 -0.0136487 	0.251759 	0 -0.0132959 	0.251526 	0 -0.0130719 	0.251258 	0 -0.0128478 	0.250993 	0 -0.0126237 	0.250733 	0 -0.0123995 	0.250476 	0 -0.0121205 	0.250022 	0 -0.0119136 	0.249548 	0 -0.0117065 	0.249078 	0 -0.0114991 	0.248611 	0 -0.0112916 	0.248148 	0 -0.0112114 	0.247902 	0 -0.0111502 	0.247651 	0 -0.0110889 	0.247399 	0 -0.0110275 	0.247148 	0 -0.010963 	0.246884 	0 -0.0108536 	0.246416 	0 -0.0107441 	0.245949 	0 -0.0106345 	0.245484 	0 -0.0105248 	0.24502 	0 -0.0104457 	0.244544 	0 -0.0103341 	0.243581 	0 -0.0102222 	0.242619 	0 -0.0101102 	0.241659 	0 -0.00999794 	0.240701 	0 -0.00996322 	0.239714 	0 -0.00993438 	0.238528 	0 -0.00990561 	0.237342 	0 -0.00987691 	0.236155 	0 -0.00984829 	0.234967 	0 -0.00994246 	0.233738 	0 -0.0100172 	0.232318 	0 -0.0100926 	0.230895 	0 -0.0101687 	0.229469 	0 -0.0102453 	0.228038 	0 -0.0104895 	0.22656 	0 -0.0106886 	0.224893 	0 -0.0108892 	0.223219 	0 -0.0110915 	0.221537 	0 -0.0112954 	0.219847 	0 -0.0117122 	0.218113 	0 -0.0120565 	0.216183 	0 -0.0124037 	0.21424 	0 -0.0127542 	0.212283 	0 -0.0131561 	0.210312 	0 -0.0137224 	0.208318 	0 -0.0142333 	0.206103 	0 -0.0147494 	0.203868 	0 -0.0152709 	0.201613 	0 -0.0159058 	0.199354 	0 -0.016638 	0.197079 	0 -0.0173384 	0.194552 	0 -0.0180472 	0.191996 	0 -0.0187649 	0.189411 	0 -0.0196633 	0.186868 	0 -0.020588 	0.184281 	0 -0.0215038 	0.181406 	0 -0.0224329 	0.178491 	0 -0.0234484 	0.175593 	0 -0.0245716 	0.172724 	0 -0.0257226 	0.169778 	0 -0.0268858 	0.166507 	0 -0.0280799 	0.163193 	0 -0.0294301 	0.160006 	0 -0.0308049 	0.156755 	0 -0.0322303 	0.153377 	0 -0.0336848 	0.149633 	0 -0.0352791 	0.146057 	0 -0.0369222 	0.142433 	0 -0.0386007 	0.138723 	0 -0.0403796 	0.134783 	0 -0.0405534 	0.134368 	0 -0.0407359 	0.133982 	0 -0.0409204 	0.133601 	0 -0.0411052 	0.133219 	0 -0.0412782 	0.132861 	0 -0.0429301 	0.129107 	0 -0.0446127 	0.125261 	0 -0.0463276 	0.121319 	0 -0.0480834 	0.117378 	0 -0.0500333 	0.113381 	0 -0.0522209 	0.108579 	0 -0.0544588 	0.103633 	0 -0.0567525 	0.0989308 	0 -0.059099 	0.0942728 	0 -0.0619444 	0.0885717 	0 -0.0625179 	0.0873418 	0 -0.0630941 	0.0861042 	0 -0.063668 	0.0850041 	0 -0.0642441 	0.0839057 	0 -0.0647388 	0.0829605 	0 -0.0668395 	0.0784027 	0 -0.0689631 	0.0737357 	0 -0.0710923 	0.0690842 	0 -0.073181 	0.0648162 	0 -0.0762374 	0.0584763 	0 -0.0768567 	0.0571069 	0 -0.0774759 	0.0557325 	0 -0.0780909 	0.0543837 	0 -0.0786847 	0.0531845 	0 -0.0792139 	0.0521113 	0 -0.0812632 	0.0472594 	0 -0.0832886 	0.0423541 	0 -0.0852224 	0.0377035 	0 -0.0870537 	0.0333537 	0 -0.0883448 	0.030211 	0 -0.0895241 	0.0267696 	0 -0.0905916 	0.023612 	0 -0.0916008 	0.0205609 	0 -0.0925834 	0.0175095 	0 -0.0938902 	0.013339 	0 -0.0941658 	0.0122012 	0 -0.0944088 	0.0111389 	0 -0.0946481 	0.0100771 	0 -0.0948836 	0.00901596 	0 -0.0954006 	0.00664995 	0 -0.0957027 	0.00521323 	0 -0.0959976 	0.00378023 	0 -0.0962854 	0.00235125 	0 -0.0965661 	0.000926581 	0 -0.096826 	-0.000454135 	0 -0.0970848 	-0.00286382 	0 -0.0973231 	-0.00526371 	0 -0.0975409 	-0.00765245 	0 -0.0975785 	-0.00810487 	0 -0.0976493 	-0.00897184 	0 -0.0977174 	-0.00983741 	0 -0.0977829 	-0.0107015 	0 -0.0978457 	-0.0115641 	0 -0.0979064 	-0.0124324 	0 -0.0978862 	-0.0146466 	0 -0.0978289 	-0.0168162 	0 -0.0977566 	-0.0189776 	0 -0.0976692 	-0.02113 	0 -0.0975634 	-0.0233482 	0 -0.0973712 	-0.0255269 	0 -0.0971087 	-0.0276076 	0 -0.0968008 	-0.0296272 	0 -0.0964825 	-0.0316384 	0 -0.0961351 	-0.0337553 	0 -0.0957267 	-0.0358252 	0 -0.0953082 	-0.0378835 	0 -0.0948798 	-0.0399296 	0 -0.0944419 	-0.0419627 	0 -0.0938901 	-0.0440429 	0 -0.093751 	-0.0445101 	0 -0.0936116 	-0.0449768 	0 -0.0934719 	-0.0454429 	0 -0.0933319 	-0.0459083 	0 -0.093205 	-0.0463292 	0 -0.0927338 	-0.0479082 	0 -0.0922596 	-0.0494809 	0 -0.0917826 	-0.0510471 	0 -0.0913028 	-0.0526064 	0 -0.0907805 	-0.0542872 	0 -0.0900715 	-0.0563193 	0 -0.0893593 	-0.0583377 	0 -0.0886441 	-0.0603418 	0 -0.0879263 	-0.0623312 	0 -0.0874116 	-0.0637423 	0 -0.087335 	-0.0639567 	0 -0.0872584 	-0.0641709 	0 -0.0871817 	-0.064385 	0 -0.0871051 	-0.0645988 	0 -0.0870273 	-0.0648157 	0 -0.0861524 	-0.0669683 	0 -0.0852653 	-0.0690814 	0 -0.0843709 	-0.0711631 	0 -0.08348 	-0.0732326 	0 -0.082445 	-0.0756326 	0 -0.0823113 	-0.0759019 	0 -0.0821777 	-0.0761709 	0 -0.0820441 	-0.0764397 	0 -0.0819108 	-0.0767083 	0 -0.0817811 	-0.0769692 	0 -0.0808509 	-0.0789278 	0 -0.0799263 	-0.0808762 	0 -0.0790077 	-0.0828139 	0 -0.0780952 	-0.0847405 	0 -0.0770199 	-0.0870128 	0 -0.0768953 	-0.0872365 	0 -0.0767707 	-0.08746 	0 -0.0766463 	-0.0876834 	0 -0.076522 	-0.0879066 	0 -0.0764001 	-0.0881256 	0 -0.0753284 	-0.0901939 	0 -0.0742672 	-0.0922518 	0 -0.0732163 	-0.0942981 	0 -0.072156 	-0.0962851 	0 -0.0712539 	-0.0979729 	0 -0.0711326 	-0.098222 	0 -0.0710114 	-0.0984709 	0 -0.0708904 	-0.0987195 	0 -0.0707695 	-0.0989678 	0 -0.0706453 	-0.0992229 	0 -0.0697491 	-0.100754 	0 -0.0688599 	-0.102277 	0 -0.0679779 	-0.103792 	0 -0.067103 	-0.105297 	0 -0.0663105 	-0.106665 	0 -0.0657073 	-0.107841 	0 -0.0651082 	-0.109013 	0 -0.0645131 	-0.11018 	0 -0.0639219 	-0.111344 	0 -0.0632455 	-0.112679 	0 -0.0629584 	-0.113142 	0 -0.0626721 	-0.113604 	0 -0.0623868 	-0.114066 	0 -0.0621025 	-0.114527 	0 -0.0618248 	-0.114979 	0 -0.0609681 	-0.116592 	0 -0.0601135 	-0.11818 	0 -0.0592337 	-0.119674 	0 -0.0583621 	-0.12116 	0 -0.0575482 	-0.122552 	0 -0.05702 	-0.123621 	0 -0.0564956 	-0.124685 	0 -0.0559748 	-0.125747 	0 -0.0554576 	-0.126805 	0 -0.0548654 	-0.128021 	0 -0.0546333 	-0.128403 	0 -0.054402 	-0.128786 	0 -0.0541714 	-0.129168 	0 -0.0539414 	-0.12955 	0 -0.0537147 	-0.129927 	0 -0.0530013 	-0.131358 	0 -0.0522458 	-0.132661 	0 -0.0514946 	-0.133953 	0 -0.0507505 	-0.13524 	0 -0.0500376 	-0.13648 	0 -0.0493877 	-0.137871 	0 -0.0487445 	-0.139259 	0 -0.0481077 	-0.140643 	0 -0.0474768 	-0.142022 	0 -0.0468088 	-0.143215 	0 -0.0465667 	-0.143756 	0 -0.0463254 	-0.144297 	0 -0.046085 	-0.144836 	0 -0.0458455 	-0.145375 	0 -0.045587 	-0.145957 	0 -0.045217 	-0.146609 	0 -0.044849 	-0.14726 	0 -0.044483 	-0.147911 	0 -0.0441189 	-0.148561 	0 -0.0437607 	-0.149204 	0 -0.0432246 	-0.150432 	0 -0.0426463 	-0.151543 	0 -0.0420554 	-0.15261 	0 -0.0414691 	-0.153675 	0 -0.0408964 	-0.15472 	0 -0.040399 	-0.155906 	0 -0.0399059 	-0.15709 	0 -0.0394169 	-0.158272 	0 -0.0388691 	-0.159298 	0 -0.0383244 	-0.16029 	0 -0.0378573 	-0.161423 	0 -0.0373936 	-0.162553 	0 -0.0369332 	-0.163681 	0 -0.0364761 	-0.164805 	0 -0.0360005 	-0.165851 	0 -0.035888 	-0.166122 	0 -0.0357757 	-0.166394 	0 -0.0356635 	-0.166664 	0 -0.0355515 	-0.166935 	0 -0.0354345 	-0.167218 	0 -0.035084 	-0.167855 	0 -0.0347353 	-0.168492 	0 -0.0343883 	-0.169129 	0 -0.034043 	-0.169766 	0 -0.0337013 	-0.170399 	0 -0.0333155 	-0.171379 	0 -0.0328605 	-0.172183 	0 -0.0324082 	-0.172985 	0 -0.0319583 	-0.173786 	0 -0.0315139 	-0.174582 	0 -0.031148 	-0.175521 	0 -0.0307844 	-0.17646 	0 -0.0303508 	-0.177219 	0 -0.0299117 	-0.177957 	0 -0.0294768 	-0.178689 	0 -0.0291222 	-0.17957 	0 -0.0287694 	-0.18045 	0 -0.0284183 	-0.181328 	0 -0.0279924 	-0.182015 	0 -0.0275621 	-0.182677 	0 -0.0272134 	-0.183491 	0 -0.0268662 	-0.184302 	0 -0.0265204 	-0.185112 	0 -0.0261735 	-0.185915 	0 -0.0257426 	-0.186498 	0 -0.0253947 	-0.187236 	0 -0.0250479 	-0.187971 	0 -0.0247022 	-0.188704 	0 -0.0243576 	-0.189434 	0 -0.023992 	-0.190104 	0 -0.0238724 	-0.190325 	0 -0.023753 	-0.190546 	0 -0.0236336 	-0.190767 	0 -0.0235143 	-0.190988 	0 -0.0233877 	-0.191221 	0 -0.0231439 	-0.191531 	0 -0.0229005 	-0.191841 	0 -0.0226577 	-0.19215 	0 -0.0224153 	-0.19246 	0 -0.0221738 	-0.192769 	0 -0.0218344 	-0.193268 	0 -0.0214533 	-0.193661 	0 -0.0210731 	-0.194053 	0 -0.0206938 	-0.194445 	0 -0.0203163 	-0.194836 	0 -0.0200234 	-0.195393 	0 -0.0196343 	-0.195711 	0 -0.01924 	-0.196015 	0 -0.0188465 	-0.196317 	0 -0.0184544 	-0.196618 	0 -0.0181494 	-0.197089 	0 -0.0178007 	-0.197453 	0 -0.0173871 	-0.197658 	0 -0.016974 	-0.197861 	0 -0.0165619 	-0.198063 	0 -0.0162393 	-0.198436 	0 -0.0159171 	-0.198808 	0 -0.0154866 	-0.198923 	0 -0.0150484 	-0.199018 	0 -0.014611 	-0.19911 	0 -0.014265 	-0.199373 	0 -0.0139192 	-0.199634 	0 -0.0135087 	-0.199745 	0 -0.0130398 	-0.199721 	0 -0.0125714 	-0.199693 	0 -0.012196 	-0.199833 	0 -0.0118205 	-0.19997 	0 -0.011421 	-0.200052 	0 -0.0109157 	-0.199899 	0 -0.0104106 	-0.199741 	0 -0.00999938 	-0.199745 	0 -0.00958778 	-0.199744 	0 -0.00917577 	-0.19974 	0 -0.00864073 	-0.199474 	0 -0.0080929 	-0.199177 	0 -0.00763917 	-0.199029 	0 -0.00718469 	-0.198877 	0 -0.00672947 	-0.19872 	0 -0.00617597 	-0.198363 	0 -0.00557937 	-0.197915 	0 -0.00507606 	-0.197602 	0 -0.00457157 	-0.197283 	0 -0.0040659 	-0.196958 	0 -0.00347926 	-0.196477 	0 -0.00282761 	-0.195869 	0 -0.00226741 	-0.195375 	0 -0.00170548 	-0.194873 	0 -0.00114179 	-0.194365 	0 -0.000505136 	-0.193725 	0 0.000208118 	-0.192946 	0 0.000832812 	-0.192256 	0 0.00145995 	-0.191557 	0 0.00208955 	-0.190849 	0 0.0027953 	-0.190015 	0 0.00357761 	-0.189055 	0 0.00427512 	-0.188153 	0 0.00497598 	-0.18724 	0 0.00568023 	-0.186315 	0 0.00647675 	-0.185256 	0 0.0073373 	-0.184102 	0 0.00811739 	-0.182971 	0 0.00890204 	-0.181825 	0 0.0096913 	-0.180665 	0 0.0106035 	-0.179356 	0 0.0115537 	-0.177991 	0 0.012428 	-0.17661 	0 0.0133084 	-0.175212 	0 0.0142104 	-0.173781 	0 0.0152517 	-0.172218 	0 0.0163058 	-0.170625 	0 0.0172878 	-0.168972 	0 0.018278 	-0.167295 	0 0.0193552 	-0.165554 	0 0.0205119 	-0.163751 	0 0.0216883 	-0.161906 	0 0.0227944 	-0.159951 	0 0.0239257 	-0.157966 	0 0.0252035 	-0.155931 	0 0.0264953 	-0.153864 	0 0.0278191 	-0.151733 	0 0.0290704 	-0.149443 	0 0.0304593 	-0.147151 	0 0.031894 	-0.144828 	0 0.0333473 	-0.142464 	0 0.0348549 	-0.140001 	0 0.035274 	-0.139216 	0 0.0357401 	-0.138461 	0 0.0362081 	-0.137702 	0 0.0366782 	-0.136938 	0 0.0370733 	-0.136296 	0 0.0381897 	-0.134285 	0 0.0393167 	-0.132243 	0 0.0404544 	-0.130172 	0 0.0416102 	-0.128085 	0 0.0428797 	-0.126043 	0 0.044592 	-0.122919 	0 0.0463295 	-0.11973 	0 0.048102 	-0.1165 	0 0.0499886 	-0.113473 	0 0.0520594 	-0.110124 	0 0.0537102 	-0.107068 	0 0.0554193 	-0.104088 	0 0.0572048 	-0.101252 	0 0.0590136 	-0.0983634 	0 0.0600794 	-0.0966524 	0 0.0606057 	-0.0956992 	0 0.0611336 	-0.0947407 	0 0.0616629 	-0.0937767 	0 0.0622066 	-0.092909 	0 0.0627828 	-0.0919975 	0 0.0649943 	-0.0880469 	0 0.0672308 	-0.0840175 	0 0.0695252 	-0.0801762 	0 0.0718729 	-0.0765163 	0 0.0749968 	-0.0715954 	0 0.0750787 	-0.0714478 	0 0.0751605 	-0.0713001 	0 0.0752437 	-0.0711614 	0 0.0753284 	-0.0710338 	0 0.075412 	-0.0709081 	0 0.0777337 	-0.0668353 	0 0.0800549 	-0.0627136 	0 0.0823957 	-0.0588331 	0 0.0847518 	-0.0552061 	0 0.0863025 	-0.0527861 	0 0.0867876 	-0.0518961 	0 0.0872715 	-0.0510168 	0 0.0877577 	-0.0502422 	0 0.0882423 	-0.0494664 	0 0.0888077 	-0.0485572 	0 0.0898962 	-0.0465993 	0 0.0909769 	-0.044641 	0 0.0920494 	-0.0426831 	0 0.0931304 	-0.0409395 	0 0.0940927 	-0.0394498 	0 0.0952821 	-0.0371682 	0 0.0964528 	-0.0348885 	0 0.0976124 	-0.0328276 	0 0.0987577 	-0.0308713 	0 0.0997843 	-0.0290916 	0 0.100635 	-0.0272017 	0 0.101463 	-0.0255315 	0 0.102274 	-0.0238943 	0 0.10307 	-0.0222583 	0 0.103826 	-0.0206746 	0 0.103935 	-0.0203685 	0 0.104041 	-0.0200948 	0 0.104147 	-0.0198211 	0 0.104252 	-0.0195473 	0 0.104372 	-0.019232 	0 0.104784 	-0.0180552 	0 0.105188 	-0.0168801 	0 0.105585 	-0.0157067 	0 0.105974 	-0.0145353 	0 0.106349 	-0.0135063 	0 0.106646 	-0.0121818 	0 0.106933 	-0.0108584 	0 0.107208 	-0.00953629 	0 0.107473 	-0.0082299 	0 0.107713 	-0.00710441 	0 0.107804 	-0.00586488 	0 0.107886 	-0.00462541 	0 0.107957 	-0.00338614 	0 0.108012 	-0.00220118 	0 0.108044 	-0.00112535 	0 0.107943 	7.38425e-05 	0 0.107832 	0.00127392 	0 0.107713 	0.00247475 	0 0.107574 	0.00362574 	0 0.107408 	0.00468663 	0 0.107122 	0.00587841 	0 0.106827 	0.00707201 	0 0.106523 	0.0082673 	0 0.106208 	0.00945488 	0 0.105851 	0.0105297 	0 0.105383 	0.0117404 	0 0.104905 	0.0129539 	0 0.104419 	0.0141701 	0 0.103925 	0.0153889 	0 0.1034 	0.0165755 	0 0.103107 	0.017139 	0 0.102812 	0.0177034 	0 0.102516 	0.0182686 	0 0.102217 	0.0188346 	0 0.102012 	0.0192226 	0 0.101617 	0.0199666 	0 0.10122 	0.0207124 	0 0.100819 	0.0214598 	0 0.100416 	0.0222088 	0 0.100003 	0.0229712 	0 0.0991872 	0.0243981 	0 0.098332 	0.0257449 	0 0.0974687 	0.0270983 	0 0.0965974 	0.0284582 	0 0.095684 	0.0298775 	0 0.0946788 	0.0314206 	0 0.0936653 	0.0329694 	0 0.0926394 	0.0345102 	0 0.0915797 	0.0359767 	0 0.0904476 	0.0375429 	0 0.0896679 	0.0386131 	0 0.088886 	0.0396863 	0 0.0881018 	0.0407623 	0 0.0873156 	0.0418409 	0 0.0867495 	0.0426172 	0 0.0862455 	0.0433319 	0 0.0857408 	0.0440477 	0 0.0852354 	0.0447648 	0 0.0847294 	0.0454831 	0 0.0841993 	0.0462358 	0 0.0827843 	0.0482044 	0 0.0813676 	0.050178 	0 0.0799425 	0.0521227 	0 0.0785127 	0.05405 	0 0.0768613 	0.0562888 	0 0.0764612 	0.056819 	0 0.0760616 	0.0573494 	0 0.0756624 	0.0578801 	0 0.0752638 	0.058411 	0 0.0749019 	0.0588937 	0 0.0735969 	0.0607147 	0 0.0722983 	0.062539 	0 0.0710068 	0.0643656 	0 0.069723 	0.0661934 	0 0.0681828 	0.0684012 	0 0.0675258 	0.0693091 	0 0.0668716 	0.0702163 	0 0.0662204 	0.0711228 	0 0.0655721 	0.0720283 	0 0.0649957 	0.0728365 	0 0.0635924 	0.074903 	0 0.0622043 	0.0769658 	0 0.0608321 	0.0790236 	0 0.059476 	0.0810754 	0 0.0577155 	0.0837631 	0 0.0574611 	0.0841351 	0 0.0572073 	0.0845068 	0 0.0569543 	0.0848782 	0 0.0567019 	0.0852493 	0 0.0564572 	0.0856098 	0 0.0548087 	0.0881446 	0 0.0531883 	0.0906345 	0 0.0515956 	0.0930766 	0 0.0500314 	0.0954979 	0 0.0487257 	0.0975379 	0 0.0478402 	0.0989952 	0 0.0469639 	0.100446 	0 0.0460969 	0.101889 	0 0.0452389 	0.103326 	0 0.0441452 	0.105167 	0 0.0436676 	0.105932 	0 0.0431929 	0.106694 	0 0.0427213 	0.107454 	0 0.0422526 	0.108212 	0 0.0417988 	0.108949 	0 0.0404235 	0.111265 	0 0.0390761 	0.113483 	0 0.0377529 	0.11567 	0 0.0364526 	0.117838 	0 0.0352508 	0.119858 	0 0.0339833 	0.122085 	0 0.0327367 	0.124293 	0 0.0315102 	0.126485 	0 0.0303071 	0.128583 	0 0.0291691 	0.130548 	0 0.0279826 	0.132695 	0 0.0268138 	0.134825 	0 0.0256624 	0.136937 	0 0.0245276 	0.139032 	0 0.0234374 	0.141023 	0 0.0230894 	0.141666 	0 0.0227429 	0.142309 	0 0.0223978 	0.142949 	0 0.0220542 	0.143588 	0 0.0216433 	0.144353 	0 0.0208879 	0.145709 	0 0.02014 	0.147058 	0 0.0193992 	0.148401 	0 0.0186655 	0.149737 	0 0.017945 	0.151056 	0 0.0168608 	0.153077 	0 0.015794 	0.155032 	0 0.0147414 	0.156973 	0 0.0137025 	0.158901 	0 0.0126859 	0.160799 	0 0.0116623 	0.162808 	0 0.0106541 	0.16471 	0 0.00965822 	0.166592 	0 0.00867417 	0.168463 	0 0.00770622 	0.170312 	0 0.00674801 	0.172262 	0 0.00579986 	0.174136 	0 0.00486176 	0.175961 	0 0.00393384 	0.177775 	0 0.00301778 	0.179574 	0 0.0021306 	0.181463 	0 0.00124916 	0.183291 	0 0.000373305 	0.185059 	0 -0.000493866 	0.186817 	0 -0.00135219 	0.188564 	0 -0.00215959 	0.19039 	0 -0.00296666 	0.192157 	0 -0.00377327 	0.193866 	0 -0.00457258 	0.195565 	0 -0.00536521 	0.197257 	0 -0.00608171 	0.199015 	0 -0.00680695 	0.200707 	0 -0.0075355 	0.202354 	0 -0.00825806 	0.203993 	0 -0.00897555 	0.205626 	0 -0.00958828 	0.20731 	0 -0.010226 	0.208916 	0 -0.0108666 	0.210497 	0 -0.0115024 	0.212071 	0 -0.0121344 	0.213641 	0 -0.0126321 	0.215237 	0 -0.013178 	0.216751 	0 -0.0137202 	0.218259 	0 -0.0142589 	0.219763 	0 -0.0147948 	0.221263 	0 -0.0151848 	0.222743 	0 -0.0156215 	0.224175 	0 -0.0160556 	0.225603 	0 -0.0164873 	0.227026 	0 -0.0169171 	0.228448 	0 -0.0171955 	0.229764 	0 -0.0175049 	0.23106 	0 -0.0178128 	0.232354 	0 -0.0181195 	0.233646 	0 -0.0183911 	0.234792 	0 -0.0184077 	0.234859 	0 -0.0184244 	0.234925 	0 -0.018441 	0.234992 	0 -0.0184576 	0.235058 	0 -0.0184759 	0.235122 	0 -0.0186714 	0.236274 	0 -0.0188663 	0.237424 	0 -0.0190605 	0.238573 	0 -0.0192541 	0.23972 	0 -0.0194882 	0.240812 	0 -0.0195559 	0.24183 	0 -0.0196238 	0.242848 	0 -0.0196917 	0.243867 	0 -0.0197597 	0.244886 	0 -0.0199262 	0.245808 	0 -0.0198699 	0.246679 	0 -0.0198142 	0.247552 	0 -0.0197592 	0.248428 	0 -0.019725 	0.24929 	0 -0.0198235 	0.250054 	0 -0.0196523 	0.250767 	0 -0.0194821 	0.251483 	0 -0.0193129 	0.252203 	0 -0.0192309 	0.252877 	0 -0.0192372 	0.2535 	0 -0.0189656 	0.254044 	0 -0.0186951 	0.254593 	0 -0.0184257 	0.255146 	0 -0.0183204 	0.255629 	0 -0.0182454 	0.2561 	0 -0.0178924 	0.256466 	0 -0.0175404 	0.256838 	0 -0.017226 	0.257203 	0 -0.0170841 	0.257506 	0 -0.0169427 	0.257812 	0 -0.0165306 	0.257994 	0 -0.0161193 	0.258184 	0 -0.015815 	0.258344 	0 -0.0156248 	0.258471 	0 -0.015435 	0.258601 	0 -0.014988 	0.258596 	0 -0.0145416 	0.258597 	0 -0.01427 	0.258551 	0 -0.0140518 	0.258493 	0 -0.0138339 	0.258438 	0 -0.013377 	0.258241 	0 -0.0129254 	0.258049 	0 -0.0127011 	0.257794 	0 -0.0124767 	0.257542 	0 -0.0122524 	0.257294 	0 -0.0118098 	0.256902 	0 -0.0114265 	0.256498 	0 -0.0112184 	0.256043 	0 -0.0110099 	0.255591 	0 -0.0108014 	0.255142 	0 -0.0103964 	0.254553 	0 -0.0100995 	0.253932 	0 -0.00992941 	0.25327 	0 -0.00975898 	0.252611 	0 -0.00958831 	0.251955 	0 -0.00924265 	0.251