# vtk DataFile Version 2.0
track0
ASCII
DATASET POLYDATA
POINTS 20002 float
1.11022e-18 0.5 1.11022e-18
0.391304 0.5 1.11022e-18
0.391043 0.499416 1.11022e-18
0.390785 0.498831 1.11022e-18
0.390529 0.498245 1.11022e-18
0.390275 0.497658 1.11022e-18
0.39 0.497017 1.11022e-18
0.389406 0.495614 1.11022e-18
0.388824 0.494205 1.11022e-18
0.388255 0.492791 1.11022e-18
0.387697 0.491373 1.11022e-18
0.38717 0.49 1.11022e-18
0.38642 0.488 1.11022e-18
0.385689 0.485993 1.11022e-18
0.384979 0.483978 1.11022e-18
0.384288 0.481957 1.11022e-18
0.383639 0.48 1.11022e-18
0.382996 0.478 1.11022e-18
0.382369 0.475995 1.11022e-18
0.381757 0.473985 1.11022e-18
0.381161 0.471971 1.11022e-18
0.380593 0.47 1.11022e-18
0.380474 0.469577 1.11022e-18
0.380356 0.469154 1.11022e-18
0.380239 0.468731 1.11022e-18
0.380122 0.468308 1.11022e-18
0.38 0.467863 1.11022e-18
0.379571 0.466291 1.11022e-18
0.379149 0.464716 1.11022e-18
0.378735 0.463139 1.11022e-18
0.378329 0.46156 1.11022e-18
0.377936 0.46 1.11022e-18
0.377441 0.458 1.11022e-18
0.376956 0.455998 1.11022e-18
0.376481 0.453993 1.11022e-18
0.376017 0.451985 1.11022e-18
0.37557 0.45 1.11022e-18
0.375129 0.448 1.11022e-18
0.374698 0.445998 1.11022e-18
0.374274 0.443994 1.11022e-18
0.37386 0.441989 1.11022e-18
0.373458 0.44 1.11022e-18
0.373064 0.438 1.11022e-18
0.372677 0.435998 1.11022e-18
0.372298 0.433996 1.11022e-18
0.371927 0.431991 1.11022e-18
0.371565 0.43 1.11022e-18
0.371252 0.428233 1.11022e-18
0.370945 0.426466 1.11022e-18
0.370643 0.424698 1.11022e-18
0.370346 0.422928 1.11022e-18
0.37 0.420826 1.11022e-18
0.369973 0.420661 1.11022e-18
0.369947 0.420495 1.11022e-18
0.36992 0.42033 1.11022e-18
0.369894 0.420165 1.11022e-18
0.369868 0.42 1.11022e-18
0.369549 0.418 1.11022e-18
0.369236 0.415999 1.11022e-18
0.36893 0.413997 1.11022e-18
0.36863 0.411994 1.11022e-18
0.368338 0.41 1.11022e-18
0.368052 0.408 1.11022e-18
0.367771 0.405999 1.11022e-18
0.367496 0.403998 1.11022e-18
0.367227 0.401995 1.11022e-18
0.366966 0.4 1.11022e-18
0.366709 0.398 1.11022e-18
0.366458 0.395999 1.11022e-18
0.366213 0.393998 1.11022e-18
0.365973 0.391996 1.11022e-18
0.36574 0.39 1.11022e-18
0.365512 0.388 1.11022e-18
0.36529 0.385999 1.11022e-18
0.365072 0.383998 1.11022e-18
0.36486 0.381997 1.11022e-18
0.364654 0.38 1.11022e-18
0.364453 0.378 1.11022e-18
0.364258 0.376 1.11022e-18
0.364067 0.373999 1.11022e-18
0.363882 0.371997 1.11022e-18
0.363702 0.37 1.11022e-18
0.363528 0.368 1.11022e-18
0.363359 0.366 1.11022e-18
0.363195 0.363999 1.11022e-18
0.363036 0.361998 1.11022e-18
0.362882 0.36 1.11022e-18
0.362734 0.358 1.11022e-18
0.362591 0.356 1.11022e-18
0.362453 0.353999 1.11022e-18
0.36232 0.351998 1.11022e-18
0.362192 0.35 1.11022e-18
0.362069 0.348 1.11022e-18
0.361952 0.346 1.11022e-18
0.36184 0.343999 1.11022e-18
0.361733 0.341998 1.11022e-18
0.361631 0.34 1.11022e-18
0.361534 0.338 1.11022e-18
0.361443 0.336 1.11022e-18
0.361357 0.333999 1.11022e-18
0.361276 0.331999 1.11022e-18
0.3612 0.33 1.11022e-18
0.36113 0.328 1.11022e-18
0.361066 0.326 1.11022e-18
0.361006 0.323999 1.11022e-18
0.360952 0.321999 1.11022e-18
0.360904 0.32 1.11022e-18
0.360861 0.318 1.11022e-18
0.360824 0.316 1.11022e-18
0.360792 0.314 1.11022e-18
0.360766 0.311999 1.11022e-18
0.360746 0.31 1.11022e-18
0.360732 0.308 1.11022e-18
0.360723 0.306 1.11022e-18
0.360721 0.304 1.11022e-18
0.360724 0.302 1.11022e-18
0.360734 0.3 1.11022e-18
0.36075 0.298 1.11022e-18
0.360772 0.296 1.11022e-18
0.3608 0.294 1.11022e-18
0.360835 0.292 1.11022e-18
0.360877 0.29 1.11022e-18
0.360925 0.288 1.11022e-18
0.36098 0.286 1.11022e-18
0.361042 0.284001 1.11022e-18
0.361111 0.282001 1.11022e-18
0.361187 0.28 1.11022e-18
0.361271 0.278 1.11022e-18
0.361363 0.276 1.11022e-18
0.361461 0.274001 1.11022e-18
0.361568 0.272002 1.11022e-18
0.361683 0.27 1.11022e-18
0.361806 0.268 1.11022e-18
0.361938 0.266001 1.11022e-18
0.362078 0.264002 1.11022e-18
0.362227 0.262003 1.11022e-18
0.362386 0.26 1.11022e-18
0.362554 0.258 1.11022e-18
0.362732 0.256001 1.11022e-18
0.36292 0.254003 1.11022e-18
0.363118 0.252005 1.11022e-18
0.363327 0.25 1.11022e-18
0.363548 0.248 1.11022e-18
0.36378 0.246001 1.11022e-18
0.364023 0.244004 1.11022e-18
0.364278 0.242008 1.11022e-18
0.364548 0.24 1.11022e-18
0.364832 0.238 1.11022e-18
0.365128 0.236002 1.11022e-18
0.365439 0.234006 1.11022e-18
0.365764 0.232012 1.11022e-18
0.366109 0.23 1.11022e-18
0.366469 0.228 1.11022e-18
0.366846 0.226003 1.11022e-18
0.367241 0.22401 1.11022e-18
0.367654 0.22202 1.11022e-18
0.368095 0.22 1.11022e-18
0.368476 0.218341 1.11022e-18
0.368872 0.216686 1.11022e-18
0.369284 0.215034 1.11022e-18
0.369712 0.213387 1.11022e-18
0.37 0.212326 1.11022e-18
0.37013 0.211861 1.11022e-18
0.370261 0.211396 1.11022e-18
0.370394 0.210932 1.11022e-18
0.370528 0.210468 1.11022e-18
0.370665 0.21 1.11022e-18
0.371258 0.208 1.11022e-18
0.37188 0.206009 1.11022e-18
0.372533 0.204028 1.11022e-18
0.373219 0.202057 1.11022e-18
0.373976 0.2 1.11022e-18
0.374759 0.198 1.11022e-18
0.375582 0.196017 1.11022e-18
0.37645 0.194052 1.11022e-18
0.377365 0.19211 1.11022e-18
0.378427 0.19 1.11022e-18
0.378742 0.189421 1.11022e-18
0.379062 0.188845 1.11022e-18
0.379387 0.188272 1.11022e-18
0.379718 0.187702 1.11022e-18
0.38 0.187227 1.11022e-18
0.380875 0.185782 1.11022e-18
0.381787 0.184359 1.11022e-18
0.382737 0.182961 1.11022e-18
0.383726 0.181592 1.11022e-18
0.384951 0.18 1.11022e-18
0.385961 0.178785 1.11022e-18
0.387009 0.177604 1.11022e-18
0.388096 0.176458 1.11022e-18
0.389222 0.17535 1.11022e-18
0.39 0.174638 1.11022e-18
0.391067 0.173711 1.11022e-18
0.392163 0.172818 1.11022e-18
0.393289 0.171962 1.11022e-18
0.394443 0.171145 1.11022e-18
0.396184 0.17 1.11022e-18
0.396947 0.169552 1.11022e-18
0.39772 0.169122 1.11022e-18
0.398503 0.16871 1.11022e-18
0.399295 0.168315 1.11022e-18
0.4 0.167983 1.11022e-18
0.402 0.167089 1.11022e-18
0.404043 0.166299 1.11022e-18
0.406125 0.165615 1.11022e-18
0.408238 0.165036 1.11022e-18
0.41 0.164643 1.11022e-18
0.412 0.164276 1.11022e-18
0.414013 0.16399 1.11022e-18
0.416036 0.163782 1.11022e-18
0.418065 0.163647 1.11022e-18
0.42 0.163584 1.11022e-18
0.422 0.163581 1.11022e-18
0.423999 0.16364 1.11022e-18
0.425996 0.163756 1.11022e-18
0.427989 0.163926 1.11022e-18
0.43 0.164149 1.11022e-18
0.432 0.164421 1.11022e-18
0.433993 0.16474 1.11022e-18
0.435978 0.165105 1.11022e-18
0.437955 0.165512 1.11022e-18
0.44 0.165975 1.11022e-18
0.442 0.166469 1.11022e-18
0.44399 0.167002 1.11022e-18
0.44597 0.167571 1.11022e-18
0.44794 0.168176 1.11022e-18
0.45 0.168846 1.11022e-18
0.450672 0.169077 1.11022e-18
0.451342 0.169311 1.11022e-18
0.452012 0.169549 1.11022e-18
0.45268 0.169791 1.11022e-18
0.453249 0.17 1.11022e-18
0.4546 0.170503 1.11022e-18
0.455944 0.17102 1.11022e-18
0.457284 0.17155 1.11022e-18
0.458617 0.172095 1.11022e-18
0.46 0.172675 1.11022e-18
0.462 0.173537 1.11022e-18
0.463987 0.17443 1.11022e-18
0.465961 0.17535 1.11022e-18
0.467922 0.176297 1.11022e-18
0.47 0.177334 1.11022e-18
0.471035 0.177867 1.11022e-18
0.472066 0.178407 1.11022e-18
0.473093 0.178954 1.11022e-18
0.474117 0.179508 1.11022e-18
0.475013 0.18 1.11022e-18
0.47601 0.180555 1.11022e-18
0.477004 0.181117 1.11022e-18
0.477994 0.181685 1.11022e-18
0.47898 0.182259 1.11022e-18
0.48 0.182862 1.11022e-18
0.482 0.184061 1.11022e-18
0.483984 0.185287 1.11022e-18
0.485952 0.186538 1.11022e-18
0.487904 0.187814 1.11022e-18
0.49 0.189219 1.11022e-18
0.490227 0.189375 1.11022e-18
0.490453 0.189532 1.11022e-18
0.490679 0.189689 1.11022e-18
0.490905 0.189846 1.11022e-18
0.491126 0.19 1.11022e-18
0.492901 0.191241 1.11022e-18
0.494661 0.192503 1.11022e-18
0.496406 0.193785 1.11022e-18
0.498136 0.195087 1.11022e-18
0.5 0.196523 1.11022e-18
0.500881 0.197218 1.11022e-18
0.501757 0.197919 1.11022e-18
0.50263 0.198624 1.11022e-18
0.503498 0.199335 1.11022e-18
0.504301 0.2 1.11022e-18
0.505441 0.200954 1.11022e-18
0.506573 0.201917 1.11022e-18
0.507697 0.20289 1.11022e-18
0.508813 0.203872 1.11022e-18
0.51 0.204933 1.11022e-18
0.511114 0.205946 1.11022e-18
0.512221 0.206969 1.11022e-18
0.513318 0.208 1.11022e-18
0.514408 0.209041 1.11022e-18
0.515397 0.21 1.11022e-18
0.516317 0.210906 1.11022e-18
0.517231 0.21182 1.11022e-18
0.518138 0.212739 1.11022e-18
0.519039 0.213666 1.11022e-18
0.52 0.214669 1.11022e-18
0.521006 0.215735 1.11022e-18
0.522003 0.21681 1.11022e-18
0.522991 0.217892 1.11022e-18
0.52397 0.218983 1.11022e-18
0.524869 0.22 1.11022e-18
0.525895 0.221179 1.11022e-18
0.526911 0.222367 1.11022e-18
0.527915 0.223564 1.11022e-18
0.528909 0.224771 1.11022e-18
0.53 0.226119 1.11022e-18
0.530616 0.226895 1.11022e-18
0.531227 0.227675 1.11022e-18
0.531834 0.228458 1.11022e-18
0.532436 0.229244 1.11022e-18
0.533009 0.23 1.11022e-18
0.534407 0.231866 1.11022e-18
0.53578 0.233751 1.11022e-18
0.537127 0.235654 1.11022e-18
0.53845 0.237574 1.11022e-18
0.54 0.23989 1.11022e-18
0.540014 0.239912 1.11022e-18
0.540028 0.239934 1.11022e-18
0.540043 0.239956 1.11022e-18
0.540057 0.239978 1.11022e-18
0.540071 0.24 1.11022e-18
0.541364 0.242 1.11022e-18
0.542631 0.244017 1.11022e-18
0.543872 0.24605 1.11022e-18
0.545086 0.248099 1.11022e-18
0.54618 0.25 1.11022e-18
0.546944 0.251363 1.11022e-18
0.547697 0.252732 1.11022e-18
0.548438 0.254107 1.11022e-18
0.549169 0.255488 1.11022e-18
0.55 0.257091 1.11022e-18
0.550295 0.257673 1.11022e-18
0.550588 0.258255 1.11022e-18
0.55088 0.258839 1.11022e-18
0.551169 0.259424 1.11022e-18
0.551452 0.26 1.11022e-18
0.552427 0.262 1.11022e-18
0.55338 0.26401 1.11022e-18
0.554312 0.266031 1.11022e-18
0.555223 0.268061 1.11022e-18
0.55607 0.27 1.11022e-18
0.556856 0.271849 1.11022e-18
0.557625 0.273706 1.11022e-18
0.558379 0.275569 1.11022e-18
0.559116 0.277438 1.11022e-18
0.56 0.279737 1.11022e-18
0.56002 0.27979 1.11022e-18
0.560039 0.279842 1.11022e-18
0.560059 0.279895 1.11022e-18
0.560078 0.279947 1.11022e-18
0.560098 0.28 1.11022e-18
0.560841 0.282 1.11022e-18
0.561568 0.284006 1.11022e-18
0.562277 0.286018 1.11022e-18
0.562971 0.288036 1.11022e-18
0.563627 0.29 1.11022e-18
0.564279 0.292 1.11022e-18
[...]
POINT_DATA 20002
 FIELD attributes 1
U 3 20002 float
-2.35821e-19 	-8.83271e-18 	0
0.0722101 	0.161613 	0 0.0718601 	0.162561 	0 0.0715117 	0.163505 	0 0.0711648 	0.164445 	0 0.0708194 	0.165382 	0 0.0704442 	0.166401 	0 0.0696157 	0.168579 	0 0.0687958 	0.17074 	0 0.0679842 	0.172882 	0 0.067181 	0.175007 	0 0.0664134 	0.17704 	0 0.0654655 	0.180003 	0 0.0645324 	0.182935 	0 0.0634945 	0.185705 	0 0.0624319 	0.188401 	0 0.061417 	0.190972 	0 0.0605498 	0.193584 	0 0.0596923 	0.196169 	0 0.0588444 	0.198726 	0 0.0580057 	0.201258 	0 0.0571246 	0.203627 	0 0.0569498 	0.204109 	0 0.0567753 	0.204591 	0 0.0566011 	0.205071 	0 0.0564272 	0.205549 	0 0.0562447 	0.206052 	0 0.0555986 	0.207749 	0 0.0549564 	0.209434 	0 0.0543179 	0.211104 	0 0.0536832 	0.212762 	0 0.0530603 	0.214385 	0 0.0524278 	0.216456 	0 0.051685 	0.21839 	0 0.0508785 	0.220234 	0 0.050076 	0.222057 	0 0.0492873 	0.223838 	0 0.0486566 	0.22562 	0 0.0480293 	0.227385 	0 0.0473725 	0.2291 	0 0.0465653 	0.230638 	0 0.045768 	0.232143 	0 0.0451265 	0.233647 	0 0.0444871 	0.235135 	0 0.0438499 	0.236607 	0 0.0432147 	0.238063 	0 0.0424103 	0.239309 	0 0.0418283 	0.240401 	0 0.0412471 	0.241482 	0 0.0406669 	0.24255 	0 0.0400875 	0.243606 	0 0.0394004 	0.244846 	0 0.0393463 	0.244934 	0 0.0392922 	0.245022 	0 0.0392381 	0.24511 	0 0.039184 	0.245198 	0 0.03913 	0.245286 	0 0.0384609 	0.246194 	0 0.0377785 	0.247072 	0 0.0370965 	0.247936 	0 0.036415 	0.248788 	0 0.0357373 	0.249622 	0 0.0351964 	0.250475 	0 0.0344938 	0.251124 	0 0.033791 	0.251759 	0 0.0330881 	0.25238 	0 0.0323878 	0.252986 	0 0.0318248 	0.253621 	0 0.0312204 	0.254195 	0 0.0304993 	0.254612 	0 0.0297775 	0.255015 	0 0.0290575 	0.255403 	0 0.0284694 	0.255824 	0 0.0278808 	0.256233 	0 0.0272031 	0.256518 	0 0.0264658 	0.256715 	0 0.0257294 	0.256897 	0 0.025119 	0.257112 	0 0.0245076 	0.257314 	0 0.0238902 	0.257498 	0 0.0231406 	0.2575 	0 0.0223913 	0.257487 	0 0.0217614 	0.257504 	0 0.0211302 	0.257508 	0 0.0204977 	0.2575 	0 0.0197934 	0.257388 	0 0.0190342 	0.25719 	0 0.0183874 	0.257016 	0 0.017739 	0.25683 	0 0.0170891 	0.25663 	0 0.0164178 	0.256392 	0 0.0156508 	0.256018 	0 0.0149894 	0.255661 	0 0.0143262 	0.255289 	0 0.013661 	0.254904 	0 0.012994 	0.254505 	0 0.0122351 	0.253981 	0 0.0115607 	0.253443 	0 0.0108841 	0.252891 	0 0.0102053 	0.252325 	0 0.00952431 	0.251745 	0 0.00878093 	0.25108 	0 0.00809441 	0.250366 	0 0.00740538 	0.249637 	0 0.00671383 	0.248893 	0 0.00601974 	0.248133 	0 0.00528144 	0.247315 	0 0.00458309 	0.246426 	0 0.0038819 	0.24552 	0 0.00317783 	0.244599 	0 0.00247087 	0.243661 	0 0.00172874 	0.242679 	0 0.00101816 	0.241613 	0 0.000304361 	0.24053 	0 -0.000412708 	0.239431 	0 -0.00113308 	0.238313 	0 -0.0018873 	0.237157 	0 -0.00261127 	0.235912 	0 -0.00333891 	0.234648 	0 -0.00407028 	0.233366 	0 -0.00480543 	0.232066 	0 -0.00558019 	0.230727 	0 -0.00631933 	0.229296 	0 -0.00706269 	0.227846 	0 -0.00781034 	0.226376 	0 -0.00856235 	0.224885 	0 -0.00936688 	0.223355 	0 -0.0101236 	0.221731 	0 -0.0108853 	0.220085 	0 -0.0116519 	0.218416 	0 -0.0124237 	0.216725 	0 -0.0132684 	0.214995 	0 -0.014046 	0.213166 	0 -0.0148293 	0.211312 	0 -0.0156185 	0.209433 	0 -0.0164225 	0.207529 	0 -0.0173109 	0.205589 	0 -0.0181134 	0.20354 	0 -0.0189228 	0.201464 	0 -0.0197393 	0.199358 	0 -0.0206059 	0.197229 	0 -0.0215267 	0.195063 	0 -0.0223598 	0.192775 	0 -0.0232014 	0.190455 	0 -0.0240522 	0.188102 	0 -0.0249965 	0.185737 	0 -0.0259576 	0.183317 	0 -0.0268296 	0.180765 	0 -0.027712 	0.178174 	0 -0.0286577 	0.175565 	0 -0.0296473 	0.172925 	0 -0.0306607 	0.170213 	0 -0.0315841 	0.167358 	0 -0.03255 	0.164474 	0 -0.0335836 	0.161569 	0 -0.034633 	0.158612 	0 -0.0357174 	0.155547 	0 -0.0365466 	0.152887 	0 -0.037449 	0.15023 	0 -0.038365 	0.147531 	0 -0.0392951 	0.144786 	0 -0.0399054 	0.142984 	0 -0.0401677 	0.142208 	0 -0.0404311 	0.141428 	0 -0.0406957 	0.140645 	0 -0.0409631 	0.13986 	0 -0.0412499 	0.139088 	0 -0.0423822 	0.135622 	0 -0.0435378 	0.132087 	0 -0.0447181 	0.128479 	0 -0.0459534 	0.124844 	0 -0.0473204 	0.121007 	0 -0.0485914 	0.11702 	0 -0.0498958 	0.11294 	0 -0.0512835 	0.10887 	0 -0.0527178 	0.104718 	0 -0.0543396 	0.100032 	0 -0.0547784 	0.0986481 	0 -0.0552244 	0.097264 	0 -0.0556838 	0.0959015 	0 -0.0561476 	0.0945279 	0 -0.0565401 	0.0933672 	0 -0.0576954 	0.0900285 	0 -0.0588771 	0.086628 	0 -0.0600862 	0.0831645 	0 -0.0613486 	0.0797517 	0 -0.0628857 	0.0756347 	0 -0.064064 	0.0722489 	0 -0.0652695 	0.0688095 	0 -0.0665071 	0.0654079 	0 -0.0677732 	0.0619887 	0 -0.0686362 	0.0596735 	0 -0.0697479 	0.0567827 	0 -0.0708768 	0.0538659 	0 -0.0720241 	0.0510022 	0 -0.0731876 	0.0481551 	0 -0.0749234 	0.0439321 	0 -0.075647 	0.0421011 	0 -0.076376 	0.0402668 	0 -0.0771102 	0.0384302 	0 -0.0778395 	0.0366508 	0 -0.0784841 	0.035093 	0 -0.0802089 	0.0310054 	0 -0.0819517 	0.0269309 	0 -0.0837011 	0.0229124 	0 -0.0854315 	0.0190644 	0 -0.0868615 	0.0159233 	0 -0.0883758 	0.0125593 	0 -0.0898876 	0.00923789 	0 -0.0913593 	0.00610804 	0 -0.0928261 	0.00301936 	0 -0.0942167 	0.000119039 	0 -0.0955467 	-0.00280291 	0 -0.0968611 	-0.00565568 	0 -0.0981357 	-0.00835695 	0 -0.0994021 	-0.0110198 	0 -0.100675 	-0.0136752 	0 -0.101834 	-0.0163173 	0 -0.102984 	-0.0189197 	0 -0.104103 	-0.0214162 	0 -0.105195 	-0.0238218 	0 -0.106321 	-0.0262869 	0 -0.107314 	-0.028734 	0 -0.108298 	-0.0311466 	0 -0.109274 	-0.0335254 	0 -0.110242 	-0.035871 	0 -0.111216 	-0.0382054 	0 -0.111492 	-0.0389726 	0 -0.111768 	-0.0397365 	0 -0.112042 	-0.0404972 	0 -0.112316 	-0.0412546 	0 -0.112549 	-0.0418991 	0 -0.113051 	-0.0434556 	0 -0.113548 	-0.0449994 	0 -0.11404 	-0.0465306 	0 -0.114528 	-0.0480493 	0 -0.115032 	-0.0496172 	0 -0.115617 	-0.0519214 	0 -0.116194 	-0.0541965 	0 -0.116741 	-0.0563785 	0 -0.117267 	-0.0584906 	0 -0.11782 	-0.0607184 	0 -0.118012 	-0.0618281 	0 -0.118202 	-0.0629314 	0 -0.118391 	-0.0640283 	0 -0.118578 	-0.0651187 	0 -0.11874 	-0.0660707 	0 -0.118865 	-0.0671758 	0 -0.118988 	-0.0682751 	0 -0.119108 	-0.0693685 	0 -0.119226 	-0.0704561 	0 -0.119346 	-0.0715786 	0 -0.119398 	-0.0737653 	0 -0.119441 	-0.0759271 	0 -0.119476 	-0.0780643 	0 -0.119499 	-0.0801649 	0 -0.119492 	-0.0823315 	0 -0.119468 	-0.0825583 	0 -0.119443 	-0.0827849 	0 -0.119418 	-0.0830112 	0 -0.119393 	-0.0832373 	0 -0.119368 	-0.0834587 	0 -0.119069 	-0.0853692 	0 -0.118765 	-0.087265 	0 -0.118454 	-0.0891459 	0 -0.118138 	-0.091012 	0 -0.117789 	-0.0930233 	0 -0.117521 	-0.0939325 	0 -0.117251 	-0.0948378 	0 -0.116981 	-0.0957392 	0 -0.116709 	-0.0966367 	0 -0.116456 	-0.0974669 	0 -0.116037 	-0.0987571 	0 -0.115615 	-0.100041 	0 -0.115191 	-0.101318 	0 -0.114765 	-0.102589 	0 -0.114306 	-0.103943 	0 -0.113737 	-0.105141 	0 -0.113167 	-0.106333 	0 -0.112596 	-0.107518 	0 -0.112024 	-0.108697 	0 -0.1115 	-0.109769 	0 -0.110974 	-0.110879 	0 -0.110447 	-0.111985 	0 -0.109919 	-0.113087 	0 -0.109391 	-0.114184 	0 -0.108821 	-0.115359 	0 -0.108096 	-0.116495 	0 -0.107371 	-0.117626 	0 -0.106646 	-0.118752 	0 -0.105921 	-0.119873 	0 -0.105249 	-0.120906 	0 -0.104461 	-0.122236 	0 -0.103673 	-0.12356 	0 -0.102886 	-0.124879 	0 -0.102098 	-0.126193 	0 -0.101225 	-0.127645 	0 -0.10065 	-0.128385 	0 -0.100076 	-0.129124 	0 -0.0995022 	-0.12986 	0 -0.0989296 	-0.130595 	0 -0.0983822 	-0.131297 	0 -0.0970551 	-0.13325 	0 -0.0957328 	-0.135194 	0 -0.0944156 	-0.137131 	0 -0.0931035 	-0.139058 	0 -0.0915419 	-0.141352 	0 -0.0915255 	-0.141371 	0 -0.0915092 	-0.141389 	0 -0.0914928 	-0.141408 	0 -0.0914764 	-0.141427 	0 -0.0914601 	-0.141445 	0 -0.0899725 	-0.143251 	0 -0.0884842 	-0.145032 	0 -0.087002 	-0.1468 	0 -0.085526 	-0.148557 	0 -0.0841723 	-0.150164 	0 -0.0832631 	-0.151457 	0 -0.0823571 	-0.152745 	0 -0.0814542 	-0.154028 	0 -0.0805544 	-0.155306 	0 -0.0795185 	-0.156779 	0 -0.0791119 	-0.157228 	0 -0.0787061 	-0.157677 	0 -0.0783011 	-0.158126 	0 -0.0778968 	-0.158574 	0 -0.0774998 	-0.159015 	0 -0.0762289 	-0.160766 	0 -0.0749062 	-0.162385 	0 -0.0735486 	-0.163908 	0 -0.0721976 	-0.165421 	0 -0.0709189 	-0.166852 	0 -0.0698159 	-0.1684 	0 -0.0687186 	-0.169941 	0 -0.0676271 	-0.171476 	0 -0.0665414 	-0.173004 	0 -0.0652179 	-0.174869 	0 -0.0651858 	-0.174903 	0 -0.0651537 	-0.174938 	0 -0.0651216 	-0.174973 	0 -0.0650895 	-0.175007 	0 -0.0650575 	-0.175042 	0 -0.0638538 	-0.176338 	0 -0.0626466 	-0.177609 	0 -0.0614455 	-0.178875 	0 -0.0602507 	-0.180136 	0 -0.0590971 	-0.181355 	0 -0.0580693 	-0.182794 	0 -0.0570474 	-0.184228 	0 -0.0559849 	-0.185564 	0 -0.0548373 	-0.186714 	0 -0.0537202 	-0.187829 	0 -0.0527352 	-0.189146 	0 -0.0517545 	-0.190457 	0 -0.0507779 	-0.19176 	0 -0.0498055 	-0.193056 	0 -0.0488021 	-0.194218 	0 -0.0485906 	-0.194478 	0 -0.0483793 	-0.194737 	0 -0.0481681 	-0.194996 	0 -0.0479571 	-0.195254 	0 -0.0477347 	-0.195526 	0 -0.0469598 	-0.196225 	0 -0.0461872 	-0.196922 	0 -0.0454169 	-0.197618 	0 -0.0446489 	-0.198312 	0 -0.0438914 	-0.198997 	0 -0.043065 	-0.200075 	0 -0.0421157 	-0.200904 	0 -0.0411436 	-0.201678 	0 -0.0401741 	-0.202448 	0 -0.039218 	-0.203204 	0 -0.0384101 	-0.204144 	0 -0.0376047 	-0.20508 	0 -0.0367118 	-0.205838 	0 -0.0357568 	-0.206468 	0 -0.0348118 	-0.207086 	0 -0.0340124 	-0.207871 	0 -0.0332145 	-0.208651 	0 -0.0324182 	-0.209425 	0 -0.0315356 	-0.210029 	0 -0.0305945 	-0.210499 	0 -0.0297944 	-0.211116 	0 -0.0289951 	-0.211726 	0 -0.0281965 	-0.21233 	0 -0.0273987 	-0.212926 	0 -0.0264934 	-0.21331 	0 -0.0256842 	-0.213748 	0 -0.024875 	-0.214178 	0 -0.0240659 	-0.2146 	0 -0.0232569 	-0.215014 	0 -0.022441 	-0.215401 	0 -0.0223397 	-0.215431 	0 -0.0222383 	-0.215462 	0 -0.022137 	-0.215492 	0 -0.0220356 	-0.215522 	0 -0.0219295 	-0.215553 	0 -0.0211936 	-0.215641 	0 -0.0204577 	-0.215725 	0 -0.0197217 	-0.215808 	0 -0.0189857 	-0.215887 	0 -0.0182522 	-0.215964 	0 -0.0174699 	-0.21603 	0 -0.0166086 	-0.215962 	0 -0.0157466 	-0.21589 	0 -0.0148838 	-0.215813 	0 -0.0140229 	-0.215732 	0 -0.0132818 	-0.215722 	0 -0.0123904 	-0.215479 	0 -0.0114976 	-0.21523 	0 -0.0106033 	-0.214975 	0 -0.00970959 	-0.214714 	0 -0.00895653 	-0.214535 	0 -0.00805017 	-0.214141 	0 -0.00711738 	-0.213705 	0 -0.00618235 	-0.213263 	0 -0.00524652 	-0.212813 	0 -0.00444695 	-0.212413 	0 -0.00352181 	-0.211857 	0 -0.00253959 	-0.211226 	0 -0.00155422 	-0.210586 	0 -0.000566436 	-0.209937 	0 0.000289199 	-0.209304 	0 0.00126283 	-0.208544 	0 0.00230446 	-0.207708 	0 0.00335032 	-0.206862 	0 0.00440066 	-0.206005 	0 0.00532249 	-0.205125 	0 0.00637616 	-0.204131 	0 0.00748842 	-0.203081 	0 0.00860625 	-0.202018 	0 0.00973139 	-0.200941 	0 0.010731 	-0.199802 	0 0.0118996 	-0.198553 	0 0.0130957 	-0.197278 	0 0.0142991 	-0.195988 	0 0.0155139 	-0.194678 	0 0.0166423 	-0.193251 	0 0.0179284 	-0.191755 	0 0.0192239 	-0.190243 	0 0.0205287 	-0.188713 	0 0.0218515 	-0.187156 	0 0.0227226 	-0.185999 	0 0.0236665 	-0.184826 	0 0.0246159 	-0.183645 	0 0.0255707 	-0.182454 	0 0.0261433 	-0.181739 	0 0.026677 	-0.181015 	0 0.0272122 	-0.180287 	0 0.0277489 	-0.179554 	0 0.0282873 	-0.178818 	0 0.0288673 	-0.178097 	0 0.0303532 	-0.175994 	0 0.0318519 	-0.173862 	0 0.0333639 	-0.1717 	0 0.0348892 	-0.169507 	0 0.036613 	-0.167379 	0 0.0382367 	-0.164972 	0 0.0398769 	-0.162532 	0 0.041534 	-0.160058 	0 0.0433557 	-0.157721 	0 0.045269 	-0.15529 	0 0.0470581 	-0.152555 	0 0.0488723 	-0.149789 	0 0.0508753 	-0.147222 	0 0.0529023 	-0.144618 	0 0.055062 	-0.141837 	0 0.0560141 	-0.140361 	0 0.0570251 	-0.138963 	0 0.0580773 	-0.137614 	0 0.0591362 	-0.136256 	0 0.0599619 	-0.135198 	0 0.0611316 	-0.133513 	0 0.0623081 	-0.131814 	0 0.0634912 	-0.130103 	0 0.0647277 	-0.128481 	0 0.0660823 	-0.126841 	0 0.0683568 	-0.123546 	0 0.0706573 	-0.120213 	0 0.0730802 	-0.117069 	0 0.0755993 	-0.114057 	0 0.0785348 	-0.110543 	0 0.0790825 	-0.109757 	0 0.0796316 	-0.108969 	0 0.0802196 	-0.108273 	0 0.0808121 	-0.107583 	0 0.0813526 	-0.106953 	0 0.0834235 	-0.104128 	0 0.0855051 	-0.101285 	0 0.0876187 	-0.0984854 	0 0.0898521 	-0.0959764 	0 0.0925895 	-0.0928948 	0 0.0935484 	-0.0916033 	0 0.0945092 	-0.0903111 	0 0.095505 	-0.0891098 	0 0.0965353 	-0.0879979 	0 0.0974498 	-0.0870121 	0 0.0994837 	-0.0843111 	0 0.101516 	-0.0816062 	0 0.103625 	-0.0791374 	0 0.105775 	-0.0768021 	0 0.108637 	-0.0736856 	0 0.108956 	-0.0732708 	0 0.109276 	-0.0728564 	0 0.109595 	-0.0724434 	0 0.109937 	-0.0720935 	0 0.110269 	-0.071753 	0 0.11233 	-0.0689587 	0 0.11438 	-0.0661712 	0 0.116449 	-0.063492 	0 0.118603 	-0.0611397 	0 0.120426 	-0.0591433 	0 0.12153 	-0.0574714 	0 0.122647 	-0.0558857 	0 0.123794 	-0.0544573 	0 0.124933 	-0.0530303 	0 0.126435 	-0.051139 	0 0.126859 	-0.0505089 	0 0.127282 	-0.0498797 	0 0.127705 	-0.0492514 	0 0.128139 	-0.0486693 	0 0.128581 	-0.0481592 	0 0.129818 	-0.0459606 	0 0.131042 	-0.0437677 	0 0.132252 	-0.0415813 	0 0.133506 	-0.0396586 	0 0.13469 	-0.037942 	0 0.135601 	-0.0357669 	0 0.136495 	-0.0335948 	0 0.137411 	-0.0316956 	0 0.138319 	-0.0298527 	0 0.139177 	-0.0280859 	0 0.139761 	-0.0258713 	0 0.140336 	-0.0238816 	0 0.1409 	-0.0219746 	0 0.141447 	-0.0200661 	0 0.141966 	-0.0182074 	0 0.142212 	-0.0160311 	0 0.142431 	-0.0140273 	0 0.142634 	-0.0120196 	0 0.142821 	-0.0100086 	0 0.142989 	-0.00802563 	0 0.142915 	-0.00663054 	0 0.142828 	-0.00528084 	0 0.142733 	-0.00392864 	0 0.142632 	-0.00257406 	0 0.142216 	0.00268412 	0 0.141723 	0.00496498 	0 0.141211 	0.00724697 	0 0.140684 	0.00953725 	0 0.14014 	0.0118353 	0 0.139575 	0.0141568 	0 0.138732 	0.0166891 	0 0.13785 	0.0191508 	0 0.136952 	0.0216234 	0 0.136039 	0.024106 	0 0.135088 	0.0266582 	0 0.133925 	0.0295605 	0 0.132688 	0.0322918 	0 0.13142 	0.0349833 	0 0.130139 	0.037687 	0 0.128781 	0.0405411 	0 0.127241 	0.0436806 	0 0.125691 	0.0468275 	0 0.12413 	0.0499796 	0 0.122523 	0.0530325 	0 0.120728 	0.0563054 	0 0.119961 	0.0576844 	0 0.119193 	0.0590642 	0 0.118426 	0.0604448 	0 0.117659 	0.061826 	0 0.117068 	0.0628913 	0 0.115849 	0.0651642 	0 0.114633 	0.0674389 	0 0.11342 	0.0697146 	0 0.112209 	0.0719906 	0 0.110863 	0.074527 	0 0.108784 	0.0783936 	0 0.10672 	0.0822478 	0 0.104673 	0.0860857 	0 0.102646 	0.0899038 	0 0.101424 	0.0922154 	0 0.101036 	0.0929973 	0 0.10065 	0.0937783 	0 0.100264 	0.0945583 	0 0.0998786 	0.0953374 	0 0.0994728 	0.0961598 	0 0.0973251 	0.10042 	0 0.0952124 	0.104644 	0 0.0931357 	0.108827 	0 0.0910957 	0.112968 	0 0.089648 	0.115929 	0 0.0890791 	0.117201 	0 0.0885138 	0.118469 	0 0.0879521 	0.119733 	0 0.0873941 	0.120992 	0 0.0867774 	0.122389 	0 0.0854534 	0.125304 	0 0.0841503 	0.128196 	0 0.0828676 	0.131064 	0 0.0816052 	0.133908 	0 0.0805058 	0.136404 	0 0.0791057 	0.139968 	0 0.0777362 	0.143498 	0 0.0763963 	0.146993 	0 0.075085 	0.150454 	0 0.0733626 	0.155049 	0 0.0733599 	0.155057 	0 0.0733573 	0.155064 	0 0.0733546 	0.155071 	0 0.0733519 	0.155078 	0 0.0733493 	0.155086 	0 0.0720591 	0.158462 	0 0.0707933 	0.1618 	0 0.0695511 	0.165101 	0 0.0683318 	0.168367 	0 0.0672103 	0.171392 	0 0.0662199 	0.174547 	0 0.0652487 	0.177673 	0 0.0642958 	0.18077 	0 0.0632839 	0.18375 	0 0.0622548 	0.1865 	0 0.0617412 	0.188138 	0 0.0612319 	0.189766 	0 0.0607269 	0.191386 	0 0.0602261 	0.192997 	0 0.0596505 	0.194854 	0 0.059315 	0.195893 	0 0.0589814 	0.196928 	0 0.0586495 	0.197961 	0 0.0583195 	0.19899 	0 0.0579941 	0.200006 	0 0.0573101 	0.20255 	0 0.0564893 	0.204923 	0 0.055677 	0.207275 	0 0.0548729 	0.209606 	0 0.0540914 	0.211875 	0 0.0534715 	0.214154 	0 0.0528586 	0.216416 	0 0.0521839 	0.218592 	0 0.0513978 	0.220629 	0 0.0506272 	0.22262 	0 0.0500173 	0.224614 	0 0.0494121 	0.226592 	0 0.0488115 	0.228555 	0 0.0482155 	0.230502 	0 0.0474573 	0.232238 	0 0.0470263 	0.233438 	0 0.0465969 	0.234631 	0 0.0461689 	0.235816 	0 0.0457425 	0.236995 	0 0.0452573 	0.238332 	0 0.0450873 	0.238766 	0 0.0449176 	0.239198 	0 0.0447481 	0.23963 	0 0.0445789 	0.240061 	0 0.0444102 	0.240491 	0 0.0438343 	0.241896 	0 0.0431999 	0.243225 	0 0.0425676 	0.244541 	0 0.0419372 	0.245845 	0 0.0413127 	0.247129 	0 0.0408375 	0.248426 	0 0.0402503 	0.249586 	0 0.0395942 	0.250658 	0 0.0389392 	0.251717 	0 0.0382885 	0.252759 	0 0.037784 	0.25382 	0 0.0372804 	0.254871 	0 0.0366536 	0.255769 	0 0.0359738 	0.256594 	0 0.0352971 	0.257403 	0 0.0347627 	0.258237 	0 0.0342287 	0.259061 	0 0.0336951 	0.259876 	0 0.03301 	0.260498 	0 0.0323097 	0.261084 	0 0.0317469 	0.261701 	0 0.031184 	0.262307 	0 0.0306211 	0.262902 	0 0.0300269 	0.263449 	0 0.0293063 	0.263824 	0 0.0287178 	0.264232 	0 0.0281289 	0.264629 	0 0.0275395 	0.265015 	0 0.0269496 	0.26539 	0 0.0262738 	0.265643 	0 0.025663 	0.265851 	0 0.0250513 	0.266048 	0 0.0244387 	0.266234 	0 0.0238253 	0.266408 	0 0.023204 	0.266559 	0 0.0231232 	0.266561 	0 0.0230424 	0.266563 	0 0.0229616 	0.266565 	0 0.0228808 	0.266567 	0 0.022797 	0.266568 	0 0.0222434 	0.266516 	0 0.021689 	0.266456 	0 0.0211337 	0.266388 	0 0.0205777 	0.266313 	0 0.0200218 	0.26623 	0 0.0194211 	0.266081 	0 0.0187696 	0.265845 	0 0.0181166 	0.265599 	0 0.0174623 	0.265342 	0 0.0168076 	0.265075 	0 0.0162366 	0.264826 	0 0.0155723 	0.264424 	0 0.0149062 	0.264011 	0 0.0142385 	0.263587 	0 0.0135699 	0.263151 	0 0.013011 	0.262776 	0 0.012342 	0.262222 	0 0.0116647 	0.261646 	0 0.0109853 	0.261058 	0 0.0103046 	0.260459 	0 0.00973004 	0.25991 	0 0.00907592 	0.259234 	0 0.00838834 	0.258498 	0 0.0076984 	0.257749 	0 0.00700668 	0.256988 	0 0.00641789 	0.256266 	0 0.00576967 	0.255451 	0 0.00507217 	0.254556 	0 0.00437196 	0.253646 	0 0.00366941 	0.252724 	0 0.00306732 	0.251828 	0 0.00241698 	0.250859 	0 0.00170914 	0.249803 	0 0.000998196 	0.248732 	0 0.000284305 	0.247646 	0 -0.000330862 	0.246573 	0 -0.000990997 	0.245435 	0 -0.00171035 	0.244215 	0 -0.00243327 	0.242979 	0 -0.00315985 	0.241726 	0 -0.00378851 	0.240471 	0 -0.00446625 	0.239152 	0 -0.00519887 	0.237761 	0 -0.00593559 	0.236354 	0 -0.00667686 	0.234927 	0 -0.00732028 	0.233482 	0 -0.00802418 	0.231969 	0 -0.00877238 	0.2304 	0 -0.00952533 	0.228812 	0 -0.0102839 	0.227203 	0 -0.0109443 	0.22556 	0 -0.011684 	0.22384 	0 -0.0124507 	0.222082 	0 -0.0132229 	0.220302 	0 -0.0140023 	0.218498 	0 -0.0146869 	0.216642 	0 -0.0154691 	0.214706 	0 -0.0162578 	0.212747 	0 -0.0170531 	0.210762 	0 -0.0178576 	0.208747 	0 -0.0186004 	0.206651 	0 -0.0194081 	0.2045 	0 -0.0202236 	0.202321 	0 -0.0210471 	0.200115 	0 -0.0218824 	0.197869 	0 -0.0221388 	0.197104 	0 -0.0224115 	0.19633 	0 -0.0226852 	0.195552 	0 -0.0229598 	0.194771 	0 -0.0231939 	0.194105 	0 -0.0237642 	0.192452 	0 -0.0243388 	0.190784 	0 -0.0249176 	0.189099 	0 -0.0255009 	0.187399 	0 -0.0261236 	0.185686 	0 -0.0269786 	0.183065 	0 -0.0278444 	0.180407 	0 -0.0287213 	0.17771 	0 -0.0296122 	0.174975 	0 -0.0306033 	0.172213 	0 -0.0315043 	0.169306 	0 -0.0324191 	0.166355 	0 -0.0333481 	0.163357 	0 -0.0343531 	0.160355 	0 -0.0354067 	0.157261 	0 -0.0363721 	0.15402 	0 -0.0373557 	0.150722 	0 -0.0384078 	0.147414 	0 -0.0395006 	0.144063 	0 -0.0406461 	0.140552 	0 -0.0417069 	0.136895 	0 -0.0428396 	0.133229 	0 -0.0440125 	0.129503 	0 -0.0452146 	0.125695 	0 -0.0463456 	0.122121 	0 -0.0463779 	0.12202 	0 -0.0464102 	0.121918 	0 -0.0464425 	0.121817 	0 -0.0464753 	0.121716 	0 -0.0465091 	0.121618 	0 -0.0477223 	0.117673 	0 -0.0489691 	0.11364 	0 -0.0502515 	0.109515 	0 -0.0515892 	0.105353 	0 -0.0531184 	0.100771 	0 -0.0545542 	0.0961027 	0 -0.0560445 	0.0913401 	0 -0.0576025 	0.0865768 	0 -0.0592176 	0.0816812 	0 -0.0604256 	0.0780523 	0 -0.0605918 	0.0775709 	0 -0.0607585 	0.0770883 	0 -0.0609261 	0.0766079 	0 -0.0610949 	0.0761408 	0 -0.0612701 	0.0756565 	0 -0.063088 	0.0702676 	0 -0.0649811 	0.0647431 	0 -0.0669382 	0.0591795 	0 -0.0689548 	0.0536109 	0 -0.0712127 	0.0474742 	0 -0.0714597 	0.0468398 	0 -0.0717074 	0.0462047 	0 -0.0719517 	0.0455944 	0 -0.0721968 	0.0449836 	0 -0.0724726 	0.044297 	0 -0.0740432 	0.0402181 	0 -0.0756474 	0.036123 	0 -0.0772817 	0.0320223 	0 -0.0788895 	0.0280681 	0 -0.080107 	0.0251254 	0 -0.0817183 	0.021394 	0 -0.083343 	0.0176957 	0 -0.0849275 	0.0141612 	0 -0.0865032 	0.0107081 	0 -0.0879117 	0.00766994 	0 -0.0893505 	0.00458874 	0 -0.0907692 	0.00159858 	0 -0.0921435 	-0.0012