# vtk DataFile Version 2.0
track0
ASCII
DATASET POLYDATA
POINTS 19883 float
1.11022e-18 0.5 1.11022e-18
0.391304 0.5 1.11022e-18
0.391043 0.499456 1.11022e-18
0.390785 0.49891 1.11022e-18
0.390529 0.498364 1.11022e-18
0.390276 0.497816 1.11022e-18
0.39 0.497213 1.11022e-18
0.389349 0.49577 1.11022e-18
0.388715 0.49432 1.11022e-18
0.388097 0.492863 1.11022e-18
0.387496 0.491399 1.11022e-18
0.386938 0.49 1.11022e-18
0.386164 0.488 1.11022e-18
0.385416 0.48599 1.11022e-18
0.384693 0.483971 1.11022e-18
0.383996 0.481943 1.11022e-18
0.383355 0.48 1.11022e-18
0.382721 0.478 1.11022e-18
0.382108 0.475993 1.11022e-18
0.381516 0.47398 1.11022e-18
0.380944 0.471962 1.11022e-18
0.380409 0.47 1.11022e-18
0.380327 0.469688 1.11022e-18
0.380246 0.469376 1.11022e-18
0.380165 0.469064 1.11022e-18
0.380084 0.468752 1.11022e-18
0.38 0.468423 1.11022e-18
0.379571 0.466738 1.11022e-18
0.379154 0.465051 1.11022e-18
0.378749 0.46336 1.11022e-18
0.378357 0.461666 1.11022e-18
0.377983 0.46 1.11022e-18
0.377548 0.458 1.11022e-18
0.377128 0.455997 1.11022e-18
0.376722 0.453991 1.11022e-18
0.376332 0.451982 1.11022e-18
0.375962 0.45 1.11022e-18
0.375604 0.448 1.11022e-18
0.375258 0.445998 1.11022e-18
0.374924 0.443994 1.11022e-18
0.374603 0.441987 1.11022e-18
0.374299 0.44 1.11022e-18
0.374006 0.438 1.11022e-18
0.373724 0.435998 1.11022e-18
0.373454 0.433995 1.11022e-18
0.373194 0.431991 1.11022e-18
0.372948 0.43 1.11022e-18
0.372713 0.428 1.11022e-18
0.372489 0.425999 1.11022e-18
0.372274 0.423997 1.11022e-18
0.37207 0.421993 1.11022e-18
0.371877 0.42 1.11022e-18
0.371695 0.418 1.11022e-18
0.371522 0.415999 1.11022e-18
0.371359 0.413997 1.11022e-18
0.371205 0.411995 1.11022e-18
0.371062 0.41 1.11022e-18
0.370928 0.408 1.11022e-18
0.370804 0.405999 1.11022e-18
0.370689 0.403998 1.11022e-18
0.370583 0.401997 1.11022e-18
0.370487 0.4 1.11022e-18
0.3704 0.398 1.11022e-18
0.370322 0.396 1.11022e-18
0.370253 0.393999 1.11022e-18
0.370193 0.391998 1.11022e-18
0.370143 0.39 1.11022e-18
0.370114 0.388626 1.11022e-18
0.37009 0.387252 1.11022e-18
0.37007 0.385878 1.11022e-18
0.370054 0.384503 1.11022e-18
0.370016 0.38 1.11022e-18
0.37002 0.378 1.11022e-18
0.370033 0.376 1.11022e-18
0.370055 0.374 1.11022e-18
0.370086 0.372 1.11022e-18
0.370127 0.37 1.11022e-18
0.370177 0.368 1.11022e-18
0.370237 0.366 1.11022e-18
0.370306 0.364001 1.11022e-18
0.370385 0.362002 1.11022e-18
0.370474 0.36 1.11022e-18
0.370573 0.358 1.11022e-18
0.370683 0.356001 1.11022e-18
0.370802 0.354002 1.11022e-18
0.370933 0.352003 1.11022e-18
0.371074 0.35 1.11022e-18
0.371226 0.348 1.11022e-18
0.371389 0.346001 1.11022e-18
0.371564 0.344003 1.11022e-18
0.37175 0.342006 1.11022e-18
0.371949 0.34 1.11022e-18
0.372161 0.338 1.11022e-18
0.372385 0.336001 1.11022e-18
0.372622 0.334004 1.11022e-18
0.372872 0.332009 1.11022e-18
0.373137 0.33 1.11022e-18
0.373417 0.328 1.11022e-18
0.373711 0.326002 1.11022e-18
0.374019 0.324006 1.11022e-18
0.374343 0.322013 1.11022e-18
0.374688 0.32 1.11022e-18
0.375048 0.318 1.11022e-18
0.375426 0.316003 1.11022e-18
0.375821 0.31401 1.11022e-18
0.376235 0.31202 1.11022e-18
0.376677 0.31 1.11022e-18
0.377136 0.308 1.11022e-18
0.377617 0.306005 1.11022e-18
0.378121 0.304016 1.11022e-18
0.378649 0.302032 1.11022e-18
0.379217 0.3 1.11022e-18
0.379373 0.299468 1.11022e-18
0.379532 0.298936 1.11022e-18
0.379693 0.298405 1.11022e-18
0.379855 0.297875 1.11022e-18
0.38 0.297409 1.11022e-18
0.380466 0.295927 1.11022e-18
0.380949 0.29445 1.11022e-18
0.381448 0.292979 1.11022e-18
0.381964 0.291514 1.11022e-18
0.382519 0.29 1.11022e-18
0.383282 0.288 1.11022e-18
0.384083 0.286014 1.11022e-18
0.384922 0.284045 1.11022e-18
0.385803 0.282094 1.11022e-18
0.386805 0.28 1.11022e-18
0.387444 0.27875 1.11022e-18
0.388103 0.277511 1.11022e-18
0.388784 0.276284 1.11022e-18
0.389488 0.275069 1.11022e-18
0.39 0.274222 1.11022e-18
0.390527 0.273378 1.11022e-18
0.391066 0.272541 1.11022e-18
0.391616 0.271711 1.11022e-18
0.392179 0.27089 1.11022e-18
0.392809 0.27 1.11022e-18
0.394247 0.26804 1.11022e-18
0.395762 0.26614 1.11022e-18
0.397357 0.264305 1.11022e-18
0.399034 0.262546 1.11022e-18
0.4 0.261626 1.11022e-18
0.400362 0.261301 1.11022e-18
0.400727 0.260979 1.11022e-18
0.401095 0.260661 1.11022e-18
0.401466 0.260347 1.11022e-18
0.401885 0.26 1.11022e-18
0.403508 0.258686 1.11022e-18
0.405189 0.257448 1.11022e-18
0.406926 0.256289 1.11022e-18
0.408716 0.255214 1.11022e-18
0.41 0.254527 1.11022e-18
0.411841 0.253621 1.11022e-18
0.413722 0.252802 1.11022e-18
0.415638 0.252071 1.11022e-18
0.417586 0.251428 1.11022e-18
0.42 0.250749 1.11022e-18
0.42067 0.2506 1.11022e-18
0.421342 0.250459 1.11022e-18
0.422016 0.250327 1.11022e-18
0.422691 0.250205 1.11022e-18
0.423911 0.25 1.11022e-18
0.425129 0.249825 1.11022e-18
0.42635 0.249678 1.11022e-18
0.427575 0.249558 1.11022e-18
0.428802 0.249466 1.11022e-18
0.43 0.249401 1.11022e-18
0.432 0.249334 1.11022e-18
0.434001 0.24933 1.11022e-18
0.436001 0.249386 1.11022e-18
0.437999 0.249499 1.11022e-18
0.44 0.249669 1.11022e-18
0.440594 0.249735 1.11022e-18
0.441187 0.249806 1.11022e-18
0.441779 0.249881 1.11022e-18
0.442371 0.24996 1.11022e-18
0.442658 0.25 1.11022e-18
0.444127 0.250212 1.11022e-18
0.445591 0.250448 1.11022e-18
0.447051 0.25071 1.11022e-18
0.448507 0.250995 1.11022e-18
0.45 0.251311 1.11022e-18
0.452 0.251769 1.11022e-18
0.45399 0.252267 1.11022e-18
0.455971 0.252803 1.11022e-18
0.457941 0.253375 1.11022e-18
0.46 0.254013 1.11022e-18
0.462 0.254672 1.11022e-18
0.463988 0.255365 1.11022e-18
0.465965 0.256092 1.11022e-18
0.467929 0.25685 1.11022e-18
0.47 0.257685 1.11022e-18
0.471099 0.258148 1.11022e-18
0.472195 0.25862 1.11022e-18
0.473287 0.259101 1.11022e-18
0.474375 0.25959 1.11022e-18
0.475266 0.26 1.11022e-18
0.476213 0.260443 1.11022e-18
0.477156 0.260892 1.11022e-18
0.478097 0.261348 1.11022e-18
0.479034 0.26181 1.11022e-18
0.48 0.262295 1.11022e-18
0.482 0.263316 1.11022e-18
0.483985 0.264367 1.11022e-18
0.485953 0.265447 1.11022e-18
0.487907 0.266554 1.11022e-18
0.49 0.267778 1.11022e-18
0.490736 0.268222 1.11022e-18
0.491469 0.268671 1.11022e-18
0.4922 0.269123 1.11022e-18
0.492929 0.269578 1.11022e-18
0.493595 0.27 1.11022e-18
0.494876 0.270819 1.11022e-18
0.496149 0.27165 1.11022e-18
0.497414 0.272493 1.11022e-18
0.498671 0.273349 1.11022e-18
0.5 0.274271 1.11022e-18
0.501617 0.275417 1.11022e-18
0.503219 0.276583 1.11022e-18
0.504807 0.277768 1.11022e-18
0.50638 0.278974 1.11022e-18
0.507686 0.28 1.11022e-18
0.508149 0.280371 1.11022e-18
0.50861 0.280744 1.11022e-18
0.50907 0.281119 1.11022e-18
0.509529 0.281495 1.11022e-18
0.51 0.281885 1.11022e-18
0.511946 0.283508 1.11022e-18
0.513865 0.285163 1.11022e-18
0.515756 0.28685 1.11022e-18
0.51762 0.288568 1.11022e-18
0.519125 0.29 1.11022e-18
0.5193 0.290171 1.11022e-18
0.519474 0.290343 1.11022e-18
0.519649 0.290514 1.11022e-18
0.519823 0.290686 1.11022e-18
0.52 0.290861 1.11022e-18
0.52184 0.292689 1.11022e-18
0.523648 0.294549 1.11022e-18
0.525423 0.29644 1.11022e-18
0.527166 0.298361 1.11022e-18
0.528602 0.3 1.11022e-18
0.528882 0.300328 1.11022e-18
0.52916 0.300657 1.11022e-18
0.529438 0.300987 1.11022e-18
0.529715 0.301318 1.11022e-18
0.53 0.30166 1.11022e-18
0.531379 0.303328 1.11022e-18
0.532734 0.305016 1.11022e-18
0.534064 0.306724 1.11022e-18
0.53537 0.30845 1.11022e-18
0.536508 0.31 1.11022e-18
0.537206 0.310977 1.11022e-18
0.537897 0.311959 1.11022e-18
0.53858 0.312947 1.11022e-18
0.539255 0.31394 1.11022e-18
0.54 0.315055 1.11022e-18
0.540649 0.316044 1.11022e-18
0.54129 0.317038 1.11022e-18
0.541924 0.318037 1.11022e-18
0.54255 0.31904 1.11022e-18
0.543139 0.32 1.11022e-18
0.544346 0.322 1.11022e-18
0.545524 0.324018 1.11022e-18
0.546672 0.326052 1.11022e-18
0.547791 0.328103 1.11022e-18
0.548792 0.33 1.11022e-18
0.549034 0.330472 1.11022e-18
0.549274 0.330946 1.11022e-18
0.549512 0.33142 1.11022e-18
0.54975 0.331894 1.11022e-18
0.55 0.332399 1.11022e-18
0.550747 0.333919 1.11022e-18
0.55148 0.335447 1.11022e-18
0.552198 0.336981 1.11022e-18
0.552901 0.338522 1.11022e-18
0.553559 0.34 1.11022e-18
0.554427 0.342 1.11022e-18
0.555272 0.34401 1.11022e-18
0.556094 0.34603 1.11022e-18
0.556892 0.348058 1.11022e-18
0.557632 0.35 1.11022e-18
0.558105 0.351286 1.11022e-18
0.55857 0.352574 1.11022e-18
0.559027 0.353866 1.11022e-18
0.559474 0.355161 1.11022e-18
0.56 0.356714 1.11022e-18
0.560217 0.357371 1.11022e-18
0.560431 0.358029 1.11022e-18
0.560644 0.358688 1.11022e-18
0.560854 0.359347 1.11022e-18
0.56106 0.36 1.11022e-18
0.561684 0.362 1.11022e-18
0.56229 0.364006 1.11022e-18
0.562877 0.366017 1.11022e-18
0.563445 0.368033 1.11022e-18
0.563979 0.37 1.11022e-18
0.564504 0.372 1.11022e-18
0.565011 0.374004 1.11022e-18
0.565503 0.376013 1.11022e-18
0.565977 0.378025 1.11022e-18
0.566424 0.38 1.11022e-18
0.56686 0.382 1.11022e-18
0.56728 0.384003 1.11022e-18
0.567684 0.38601 1.11022e-18
0.568073 0.388019 1.11022e-18
0.568441 0.39 1.11022e-18
0.568753 0.391759 1.11022e-18
0.569053 0.393521 1.11022e-18
0.569342 0.395284 1.11022e-18
0.569619 0.397049 1.11022e-18
0.57 0.399585 1.11022e-18
0.570012 0.399668 1.11022e-18
0.570023 0.399751 1.11022e-18
0.570035 0.399834 1.11022e-18
0.570047 0.399917 1.11022e-18
0.570058 0.4 1.11022e-18
0.570337 0.402 1.11022e-18
0.570601 0.404002 1.11022e-18
0.57085 0.406006 1.11022e-18
0.571085 0.408011 1.11022e-18
0.571303 0.41 1.11022e-18
0.571508 0.412 1.11022e-18
0.571699 0.414001 1.11022e-18
0.571876 0.416004 1.11022e-18
0.572037 0.418008 1.11022e-18
0.572183 0.42 1.11022e-18
0.572314 0.422 1.11022e-18
0.572432 0.424001 1.11022e-18
0.572535 0.426003 1.11022e-18
0.572623 0.428005 1.11022e-18
0.572694 0.43 1.11022e-18
0.572751 0.432 1.11022e-18
0.572792 0.434 1.11022e-18
0.572819 0.436001 1.11022e-18
0.572829 0.438002 1.11022e-18
0.572822 0.44 1.11022e-18
0.572798 0.442 1.11022e-18
0.572759 0.444 1.11022e-18
0.572702 0.445999 1.11022e-18
0.572628 0.447998 1.11022e-18
0.572535 0.45 1.11022e-18
0.572424 0.452 1.11022e-18
0.572295 0.453999 1.11022e-18
0.572147 0.455997 1.11022e-18
0.571978 0.457993 1.11022e-18
[...]
POINT_DATA 19883
 FIELD attributes 1
U 3 19883 float
-2.29499e-19 	-8.41193e-18 	0
0.074093 	0.154551 	0 0.0736063 	0.15538 	0 0.0731202 	0.156205 	0 0.0726348 	0.157026 	0 0.0721501 	0.157842 	0 0.0716176 	0.158736 	0 0.0703522 	0.160857 	0 0.0690914 	0.16295 	0 0.0678354 	0.165013 	0 0.0665841 	0.167047 	0 0.0653975 	0.168957 	0 0.0638731 	0.171631 	0 0.0623578 	0.174258 	0 0.0607609 	0.176753 	0 0.0590968 	0.179129 	0 0.0575144 	0.181347 	0 0.0560722 	0.18356 	0 0.0546354 	0.18573 	0 0.0532039 	0.187858 	0 0.0517778 	0.189946 	0 0.0503524 	0.191884 	0 0.0501369 	0.192164 	0 0.0499214 	0.192443 	0 0.0497061 	0.192721 	0 0.0494907 	0.192999 	0 0.0492637 	0.19329 	0 0.0481065 	0.194751 	0 0.0469512 	0.196185 	0 0.0457979 	0.197593 	0 0.0446465 	0.198976 	0 0.0435173 	0.20031 	0 0.0423623 	0.201871 	0 0.041084 	0.20328 	0 0.0397562 	0.204608 	0 0.0384295 	0.205901 	0 0.0371238 	0.207142 	0 0.0360049 	0.208352 	0 0.0348872 	0.209534 	0 0.0336762 	0.210597 	0 0.0323897 	0.211558 	0 0.0311167 	0.212477 	0 0.0300284 	0.21336 	0 0.0289402 	0.214217 	0 0.0278523 	0.215048 	0 0.0266542 	0.215748 	0 0.0254151 	0.216368 	0 0.0243538 	0.216948 	0 0.023292 	0.217504 	0 0.0222295 	0.218033 	0 0.0211602 	0.218532 	0 0.0199551 	0.218873 	0 0.0189181 	0.219171 	0 0.0178799 	0.219445 	0 0.0168404 	0.219694 	0 0.0157998 	0.219919 	0 0.0146851 	0.220049 	0 0.0136693 	0.220084 	0 0.0126518 	0.220094 	0 0.0116325 	0.220079 	0 0.0106116 	0.220041 	0 0.0095606 	0.219952 	0 0.00856244 	0.219737 	0 0.00756214 	0.219498 	0 0.00655969 	0.219235 	0 0.00555512 	0.218947 	0 0.00454199 	0.218629 	0 0.00386514 	0.218318 	0 0.00318709 	0.217996 	0 0.00250783 	0.217662 	0 0.00182738 	0.217316 	0 -0.000406996 	0.216145 	0 -0.00138586 	0.215462 	0 -0.00236767 	0.214754 	0 -0.00335244 	0.214021 	0 -0.00434018 	0.213262 	0 -0.00533729 	0.212473 	0 -0.00631855 	0.21156 	0 -0.00730322 	0.210621 	0 -0.00829134 	0.209655 	0 -0.00928291 	0.208663 	0 -0.0103009 	0.207633 	0 -0.0112935 	0.206485 	0 -0.0122901 	0.20531 	0 -0.0132908 	0.204105 	0 -0.0142955 	0.202872 	0 -0.0153543 	0.201595 	0 -0.0163666 	0.200203 	0 -0.0173836 	0.19878 	0 -0.0184054 	0.197326 	0 -0.0194321 	0.19584 	0 -0.0205529 	0.194307 	0 -0.0215933 	0.192654 	0 -0.0226393 	0.190968 	0 -0.0236911 	0.189246 	0 -0.0247862 	0.18749 	0 -0.0259566 	0.185686 	0 -0.0270342 	0.183749 	0 -0.0281188 	0.181774 	0 -0.029211 	0.179758 	0 -0.0304122 	0.177716 	0 -0.0316355 	0.175606 	0 -0.0327617 	0.17335 	0 -0.0338966 	0.171049 	0 -0.0351222 	0.16872 	0 -0.0363842 	0.166346 	0 -0.0376792 	0.163876 	0 -0.0388691 	0.16125 	0 -0.0401449 	0.158592 	0 -0.0414736 	0.155887 	0 -0.0428157 	0.153119 	0 -0.0442099 	0.150206 	0 -0.0445495 	0.149388 	0 -0.0449184 	0.148575 	0 -0.045293 	0.147758 	0 -0.0456688 	0.146936 	0 -0.0460006 	0.146209 	0 -0.0470268 	0.143958 	0 -0.0480612 	0.141668 	0 -0.049104 	0.139339 	0 -0.050176 	0.136982 	0 -0.0513714 	0.134531 	0 -0.0528495 	0.131069 	0 -0.0543469 	0.127522 	0 -0.0559055 	0.123912 	0 -0.0575766 	0.120262 	0 -0.0594132 	0.1162 	0 -0.0604532 	0.113577 	0 -0.0615322 	0.110928 	0 -0.0626846 	0.108269 	0 -0.0638487 	0.105564 	0 -0.0646781 	0.103623 	0 -0.0654781 	0.101747 	0 -0.066283 	0.0998506 	0 -0.0670926 	0.0979324 	0 -0.067968 	0.0960301 	0 -0.0689374 	0.0939248 	0 -0.0709558 	0.0890215 	0 -0.0730067 	0.0839902 	0 -0.0752314 	0.0789207 	0 -0.0775033 	0.073735 	0 -0.0787641 	0.0708223 	0 -0.0791995 	0.0698048 	0 -0.0796355 	0.0687833 	0 -0.080092 	0.0677708 	0 -0.0805607 	0.066762 	0 -0.0810853 	0.0656294 	0 -0.0829787 	0.0611672 	0 -0.0848834 	0.0566478 	0 -0.0868234 	0.0520987 	0 -0.0888639 	0.0475779 	0 -0.0902854 	0.0444024 	0 -0.0921492 	0.040131 	0 -0.0940377 	0.0358823 	0 -0.0959802 	0.0316918 	0 -0.0978999 	0.0275101 	0 -0.100213 	0.0224209 	0 -0.100789 	0.0210947 	0 -0.101388 	0.0197993 	0 -0.101983 	0.0185074 	0 -0.102574 	0.017219 	0 -0.103632 	0.0149049 	0 -0.104652 	0.0126032 	0 -0.105662 	0.0103176 	0 -0.106661 	0.00804907 	0 -0.107649 	0.00579823 	0 -0.10862 	0.00364548 	0 -0.110108 	0.000238298 	0 -0.111566 	-0.00312251 	0 -0.112993 	-0.00643566 	0 -0.114389 	-0.00970027 	0 -0.115767 	-0.0129108 	0 -0.116135 	-0.0138107 	0 -0.1165 	-0.0147067 	0 -0.116862 	-0.0155988 	0 -0.117222 	-0.0164869 	0 -0.117396 	-0.0169168 	0 -0.118257 	-0.0191251 	0 -0.119099 	-0.0213109 	0 -0.119923 	-0.0234744 	0 -0.120729 	-0.0256155 	0 -0.121539 	-0.027795 	0 -0.122452 	-0.0306493 	0 -0.123357 	-0.0333822 	0 -0.12423 	-0.0360782 	0 -0.125074 	-0.0387378 	0 -0.125929 	-0.0414943 	0 -0.126564 	-0.0441334 	0 -0.12717 	-0.0467349 	0 -0.127748 	-0.0492995 	0 -0.128305 	-0.0517373 	0 -0.128869 	-0.0542777 	0 -0.129051 	-0.0556094 	0 -0.129226 	-0.0569312 	0 -0.129393 	-0.0582431 	0 -0.129553 	-0.0595451 	0 -0.129678 	-0.0606074 	0 -0.12977 	-0.0617758 	0 -0.129855 	-0.062937 	0 -0.129934 	-0.064091 	0 -0.130006 	-0.065238 	0 -0.130075 	-0.0664165 	0 -0.130008 	-0.0688519 	0 -0.129913 	-0.0712533 	0 -0.129782 	-0.0735596 	0 -0.129619 	-0.075792 	0 -0.129416 	-0.0781731 	0 -0.129254 	-0.0790017 	0 -0.129089 	-0.0798262 	0 -0.128921 	-0.0806466 	0 -0.128749 	-0.081463 	0 -0.128588 	-0.0822079 	0 -0.128234 	-0.0837289 	0 -0.127869 	-0.0852376 	0 -0.127493 	-0.086734 	0 -0.127106 	-0.0882181 	0 -0.126682 	-0.0897837 	0 -0.12597 	-0.0916729 	0 -0.125241 	-0.0935401 	0 -0.124494 	-0.0953853 	0 -0.123732 	-0.0972084 	0 -0.123078 	-0.0987183 	0 -0.122832 	-0.099293 	0 -0.122585 	-0.0998658 	0 -0.122336 	-0.100437 	0 -0.122086 	-0.101006 	0 -0.121826 	-0.10159 	0 -0.120531 	-0.103972 	0 -0.11921 	-0.106317 	0 -0.117864 	-0.108626 	0 -0.116493 	-0.110897 	0 -0.11535 	-0.112729 	0 -0.115213 	-0.11296 	0 -0.115076 	-0.113191 	0 -0.114939 	-0.113422 	0 -0.114802 	-0.113653 	0 -0.114663 	-0.113886 	0 -0.113007 	-0.116255 	0 -0.11133 	-0.118585 	0 -0.109631 	-0.120876 	0 -0.107912 	-0.123129 	0 -0.10645 	-0.124989 	0 -0.106165 	-0.125386 	0 -0.10588 	-0.125783 	0 -0.105594 	-0.126178 	0 -0.105307 	-0.126572 	0 -0.10501 	-0.126979 	0 -0.103422 	-0.12885 	0 -0.101824 	-0.130696 	0 -0.100215 	-0.132516 	0 -0.098597 	-0.134311 	0 -0.0971513 	-0.135883 	0 -0.0962832 	-0.136953 	0 -0.0954126 	-0.138017 	0 -0.0945397 	-0.139072 	0 -0.0936645 	-0.140121 	0 -0.0926849 	-0.141282 	0 -0.0917508 	-0.142217 	0 -0.0908154 	-0.143146 	0 -0.0898789 	-0.144068 	0 -0.0889412 	-0.144983 	0 -0.0880476 	-0.145848 	0 -0.0863045 	-0.147838 	0 -0.0845587 	-0.149803 	0 -0.0828107 	-0.151744 	0 -0.0810309 	-0.153601 	0 -0.0793366 	-0.155167 	0 -0.0789432 	-0.155589 	0 -0.0785496 	-0.15601 	0 -0.0781557 	-0.15643 	0 -0.0777617 	-0.156848 	0 -0.0773429 	-0.15729 	0 -0.0760166 	-0.158469 	0 -0.0746897 	-0.159635 	0 -0.0733623 	-0.160788 	0 -0.0720345 	-0.161927 	0 -0.0707665 	-0.163002 	0 -0.0691978 	-0.164614 	0 -0.0676298 	-0.166205 	0 -0.0660626 	-0.167776 	0 -0.0643784 	-0.169113 	0 -0.0627655 	-0.170351 	0 -0.0617881 	-0.171248 	0 -0.0608104 	-0.172134 	0 -0.0598324 	-0.173012 	0 -0.0588541 	-0.173879 	0 -0.0576834 	-0.174905 	0 -0.0571724 	-0.175269 	0 -0.0566615 	-0.175631 	0 -0.0561507 	-0.175991 	0 -0.0556401 	-0.17635 	0 -0.055135 	-0.176702 	0 -0.0537165 	-0.177875 	0 -0.0521821 	-0.178841 	0 -0.050647 	-0.179788 	0 -0.0491114 	-0.180714 	0 -0.0476173 	-0.181596 	0 -0.0462547 	-0.182595 	0 -0.0448921 	-0.183577 	0 -0.0434784 	-0.184463 	0 -0.0419614 	-0.185175 	0 -0.0404741 	-0.185851 	0 -0.0391135 	-0.186602 	0 -0.0377518 	-0.187333 	0 -0.0363891 	-0.188046 	0 -0.0350256 	-0.188739 	0 -0.0335372 	-0.189204 	0 -0.0323283 	-0.189635 	0 -0.0311178 	-0.190051 	0 -0.0299058 	-0.19045 	0 -0.0286922 	-0.190834 	0 -0.0269485 	-0.191361 	0 -0.0268911 	-0.191373 	0 -0.0268336 	-0.191384 	0 -0.0267762 	-0.191396 	0 -0.0267187 	-0.191407 	0 -0.0266613 	-0.191418 	0 -0.0252643 	-0.191544 	0 -0.0238581 	-0.191646 	0 -0.0224492 	-0.191731 	0 -0.0210377 	-0.1918 	0 -0.0196366 	-0.191852 	0 -0.0183332 	-0.191861 	0 -0.0168931 	-0.19172 	0 -0.015449 	-0.19156 	0 -0.014001 	-0.191383 	0 -0.0125586 	-0.191188 	0 -0.0112581 	-0.190955 	0 -0.00980115 	-0.190585 	0 -0.00830845 	-0.190171 	0 -0.00681058 	-0.189738 	0 -0.00531355 	-0.189285 	0 -0.00395348 	-0.188748 	0 -0.00247562 	-0.188132 	0 -0.000921053 	-0.187455 	0 0.000640085 	-0.186757 	0 0.0022058 	-0.186037 	0 0.00363702 	-0.185186 	0 0.0051867 	-0.184283 	0 0.00681664 	-0.183336 	0 0.00845479 	-0.182364 	0 0.0101046 	-0.181366 	0 0.0116196 	-0.180191 	0 0.0132928 	-0.17899 	0 0.0150135 	-0.177762 	0 0.0167444 	-0.176507 	0 0.0184972 	-0.175217 	0 0.0201482 	-0.173715 	0 0.0219658 	-0.172225 	0 0.0237961 	-0.170707 	0 0.025639 	-0.169159 	0 0.0275198 	-0.167559 	0 0.028073 	-0.166994 	0 0.028671 	-0.166448 	0 0.0292705 	-0.165899 	0 0.0298714 	-0.165348 	0 0.0303424 	-0.164914 	0 0.0316897 	-0.163577 	0 0.0330429 	-0.162222 	0 0.034402 	-0.160849 	0 0.035767 	-0.159455 	0 0.0372603 	-0.158117 	0 0.0392727 	-0.155945 	0 0.0412994 	-0.153733 	0 0.0433403 	-0.151482 	0 0.0454941 	-0.149315 	0 0.0478301 	-0.147113 	0 0.0499947 	-0.144581 	0 0.0521762 	-0.142009 	0 0.054523 	-0.139611 	0 0.0569256 	-0.137227 	0 0.0595168 	-0.134631 	0 0.0606778 	-0.133194 	0 0.0618907 	-0.131823 	0 0.0631621 	-0.130528 	0 0.0644386 	-0.129225 	0 0.0654213 	-0.128218 	0 0.0667587 	-0.12666 	0 0.0680996 	-0.125088 	0 0.0694436 	-0.123504 	0 0.070859 	-0.122035 	0 0.0724127 	-0.120503 	0 0.0750334 	-0.117355 	0 0.0776669 	-0.114169 	0 0.0804707 	-0.11126 	0 0.083325 	-0.108399 	0 0.0867505 	-0.104938 	0 0.086836 	-0.104832 	0 0.0869215 	-0.104727 	0 0.087012 	-0.104631 	0 0.0871044 	-0.104539 	0 0.0871957 	-0.104449 	0 0.0899874 	-0.101107 	0 0.0927769 	-0.0977371 	0 0.0956166 	-0.094465 	0 0.0985907 	-0.0914848 	0 0.102493 	-0.0875384 	0 0.102693 	-0.0872924 	0 0.102893 	-0.0870463 	0 0.103097 	-0.0868108 	0 0.103313 	-0.0865993 	0 0.103524 	-0.0863921 	0 0.106152 	-0.0831037 	0 0.10876 	-0.0798067 	0 0.111424 	-0.0766949 	0 0.114165 	-0.0738297 	0 0.116279 	-0.0715978 	0 0.116965 	-0.0706435 	0 0.11765 	-0.0696997 	0 0.11837 	-0.0688624 	0 0.119086 	-0.0680246 	0 0.119902 	-0.0670651 	0 0.121184 	-0.0652819 	0 0.122456 	-0.0635006 	0 0.12372 	-0.0617217 	0 0.125043 	-0.0601422 	0 0.126268 	-0.0587446 	0 0.127876 	-0.0561507 	0 0.129459 	-0.0535582 	0 0.131085 	-0.0512244 	0 0.132708 	-0.0489768 	0 0.134166 	-0.0469282 	0 0.135011 	-0.0451877 	0 0.135866 	-0.0435954 	0 0.13672 	-0.042065 	0 0.137561 	-0.0405339 	0 0.138746 	-0.0383466 	0 0.139007 	-0.0377842 	0 0.139267 	-0.0372222 	0 0.139525 	-0.0366605 	0 0.139784 	-0.0361047 	0 0.140054 	-0.0356298 	0 0.140848 	-0.0332968 	0 0.141623 	-0.0309645 	0 0.142376 	-0.0286337 	0 0.143117 	-0.026374 	0 0.143832 	-0.0244303 	0 0.144279 	-0.0220389 	0 0.144705 	-0.0196467 	0 0.14511 	-0.0172543 	0 0.145488 	-0.0151228 	0 0.145839 	-0.0130657 	0 0.145935 	-0.0105782 	0 0.146009 	-0.00808849 	0 0.14605 	-0.00568296 	0 0.146046 	-0.00346104 	0 0.146022 	-0.0012592 	0 0.145761 	0.00135468 	0 0.145476 	0.00397188 	0 0.145147 	0.0064955 	0 0.14476 	0.00886284 	0 0.144351 	0.011243 	0 0.143725 	0.0140106 	0 0.143075 	0.0167824 	0 0.142403 	0.0195573 	0 0.141637 	0.0221098 	0 0.140831 	0.0247108 	0 0.13983 	0.0276637 	0 0.138809 	0.030621 	0 0.137766 	0.0335812 	0 0.136703 	0.036543 	0 0.135505 	0.0394809 	0 0.134971 	0.0407106 	0 0.134435 	0.0419409 	0 0.133897 	0.0431716 	0 0.133355 	0.0444026 	0 0.132967 	0.0452814 	0 0.132024 	0.0473725 	0 0.131073 	0.049465 	0 0.130114 	0.0515585 	0 0.129147 	0.0536523 	0 0.128113 	0.055874 	0 0.126399 	0.0595719 	0 0.124666 	0.0632612 	0 0.122856 	0.0668351 	0 0.121018 	0.0703722 	0 0.118902 	0.074424 	0 0.118058 	0.0760518 	0 0.117213 	0.0776767 	0 0.116368 	0.0792983 	0 0.115523 	0.0809164 	0 0.114838 	0.0822253 	0 0.113445 	0.0848836 	0 0.112054 	0.0875315 	0 0.110663 	0.0901682 	0 0.109275 	0.0927927 	0 0.107659 	0.0958356 	0 0.106218 	0.0985705 	0 0.104781 	0.101287 	0 0.10335 	0.103985 	0 0.101924 	0.106663 	0 0.100794 	0.108776 	0 0.0995389 	0.11116 	0 0.0982891 	0.113526 	0 0.0970449 	0.115875 	0 0.0958065 	0.118207 	0 0.0943289 	0.120982 	0 0.0932731 	0.12297 	0 0.0922224 	0.124944 	0 0.0911767 	0.126904 	0 0.0901363 	0.128849 	0 0.0892001 	0.130596 	0 0.0871917 	0.134484 	0 0.0852059 	0.138315 	0 0.0832429 	0.142091 	0 0.081303 	0.14581 	0 0.0792921 	0.149491 	0 0.0791409 	0.149767 	0 0.0789898 	0.150042 	0 0.0788388 	0.150316 	0 0.0786879 	0.15059 	0 0.0785327 	0.150872 	0 0.0768409 	0.153941 	0 0.0751617 	0.156961 	0 0.073495 	0.159934 	0 0.0718409 	0.162861 	0 0.0703288 	0.165514 	0 0.0687534 	0.168497 	0 0.0671918 	0.171434 	0 0.065644 	0.174325 	0 0.0640534 	0.177117 	0 0.0624558 	0.179608 	0 0.0617468 	0.180813 	0 0.0610398 	0.182008 	0 0.0603348 	0.183193 	0 0.0596317 	0.184369 	0 0.0588119 	0.185732 	0 0.058086 	0.186913 	0 0.0573621 	0.188085 	0 0.0566403 	0.189247 	0 0.0559206 	0.1904 	0 0.0552145 	0.191525 	0 0.053983 	0.193755 	0 0.0525883 	0.195788 	0 0.0511844 	0.19777 	0 0.0497856 	0.199716 	0 0.0484262 	0.20158 	0 0.0472443 	0.203426 	0 0.0460671 	0.205242 	0 0.0448474 	0.206984 	0 0.0434899 	0.208559 	0 0.0421584 	0.210074 	0 0.0410135 	0.211562 	0 0.0398713 	0.213022 	0 0.0387318 	0.214455 	0 0.0375927 	0.215858 	0 0.0362897 	0.217044 	0 0.0351834 	0.21819 	0 0.0340784 	0.21931 	0 0.0329746 	0.220404 	0 0.0318721 	0.221473 	0 0.0307305 	0.222534 	0 0.0306471 	0.222599 	0 0.0305636 	0.222663 	0 0.0304802 	0.222728 	0 0.0303967 	0.222792 	0 0.0303108 	0.222858 	0 0.0293082 	0.223591 	0 0.0283058 	0.224304 	0 0.0273036 	0.224997 	0 0.0263017 	0.22567 	0 0.0253062 	0.22632 	0 0.0243524 	0.226957 	0 0.0232906 	0.227459 	0 0.0222283 	0.227938 	0 0.0211655 	0.228394 	0 0.0201074 	0.228826 	0 0.0192219 	0.229249 	0 0.0182139 	0.229522 	0 0.0171744 	0.229741 	0 0.0161338 	0.229938 	0 0.0150958 	0.230112 	0 0.01422 	0.230274 	0 0.0132861 	0.230358 	0 0.0122674 	0.230332 	0 0.0112471 	0.230285 	0 0.0102276 	0.230215 	0 0.00935912 	0.23013 	0 0.00847077 	0.230006 	0 0.00746989 	0.229749 	0 0.00646693 	0.22947 	0 0.0054634 	0.229168 	0 0.00459936 	0.228845 	0 0.00373356 	0.228502 	0 0.00274661 	0.228024 	0 0.00175669 	0.227522 	0 0.000764939 	0.226997 	0 -9.84694e-05 	0.226442 	0 -0.000964058 	0.225867 	0 -0.00193979 	0.225176 	0 -0.00292329 	0.224457 	0 -0.00390986 	0.223714 	0 -0.00477805 	0.222929 	0 -0.00565119 	0.222121 	0 -0.00663362 	0.221209 	0 -0.00761951 	0.220271 	0 -0.00860988 	0.219307 	0 -0.00948947 	0.218289 	0 -0.0103922 	0.217235 	0 -0.0113856 	0.2161 	0 -0.0123831 	0.214938 	0 -0.0133867 	0.213747 	0 -0.0142843 	0.212487 	0 -0.0152341 	0.211176 	0 -0.0162469 	0.209808 	0 -0.0172646 	0.208411 	0 -0.0182907 	0.20698 	0 -0.0192127 	0.205465 	0 -0.0202282 	0.203888 	0 -0.0212688 	0.202272 	0 -0.0223153 	0.200624 	0 -0.0233733 	0.198933 	0 -0.0243593 	0.197136 	0 -0.0254298 	0.195286 	0 -0.0265073 	0.1934 	0 -0.027592 	0.191476 	0 -0.0286928 	0.189499 	0 -0.0288768 	0.189126 	0 -0.0290746 	0.188749 	0 -0.0292725 	0.188371 	0 -0.0294708 	0.187992 	0 -0.0296529 	0.187643 	0 -0.0305601 	0.185885 	0 -0.0314727 	0.184099 	0 -0.0323906 	0.182285 	0 -0.0333141 	0.180442 	0 -0.034317 	0.178565 	0 -0.0354586 	0.17615 	0 -0.0366099 	0.173688 	0 -0.0377711 	0.171178 	0 -0.0389905 	0.168633 	0 -0.0403105 	0.166007 	0 -0.0415163 	0.163218 	0 -0.0427346 	0.160373 	0 -0.0440147 	0.157487 	0 -0.0453799 	0.154564 	0 -0.0468021 	0.151485 	0 -0.0480951 	0.14824 	0 -0.049475 	0.144952 	0 -0.0509308 	0.141611 	0 -0.0524066 	0.138191 	0 -0.0539799 	0.134507 	0 -0.0541118 	0.13415 	0 -0.0542511 	0.133796 	0 -0.0543961 	0.133444 	0 -0.0545413 	0.133091 	0 -0.0546802 	0.132752 	0 -0.0560553 	0.1294 	0 -0.057449 	0.125976 	0 -0.0588617 	0.122477 	0 -0.0603553 	0.118936 	0 -0.0620714 	0.115036 	0 -0.0637669 	0.110629 	0 -0.0655104 	0.106119 	0 -0.0674173 	0.101566 	0 -0.0693593 	0.0968908 	0 -0.0711136 	0.0926292 	0 -0.0712328 	0.0923382 	0 -0.0713521 	0.0920467 	0 -0.0714731 	0.0917558 	0 -0.0716019 	0.0914693 	0 -0.0717332 	0.0911772 	0 -0.0738601 	0.085884 	0 -0.0760282 	0.0804579 	0 -0.0782892 	0.0749364 	0 -0.0806944 	0.0693598 	0 -0.0841606 	0.0612607 	0 -0.0841926 	0.0611849 	0 -0.0842245 	0.061109 	0 -0.0842584 	0.0610344 	0 -0.0842924 	0.06096 	0 -0.0843269 	0.0608848 	0 -0.0865445 	0.0556077 	0 -0.0887806 	0.0502747 	0 -0.0910374 	0.0449075 	0 -0.0934189 	0.039616 	0 -0.0950577 	0.0359612 	0 -0.0969995 	0.0315379 	0 -0.0989664 	0.0271725 	0 -0.100969 	0.0228884 	0 -0.102946 	0.0186366 	0 -0.104632 	0.0149952 	0 -0.10633 	0.0112465 	0 -0.108044 	0.00760293 	0 -0.109729 	0.00400295 	0 -0.111381 	0.000449043 	0 -0.112951 	-0.00294544 	0 -0.114408 	-0.00620741 	0 -0.115855 	-0.00938585 	0 -0.117271 	-0.0125201 	0 -0.118657 	-0.0156099 	0 -0.120036 	-0.0187093 	0 -0.12123 	-0.0216742 	0 -0.122426 	-0.0245051 	0 -0.123594 	-0.0272967 	0 -0.124735 	-0.0300495 	0 -0.125893 	-0.0328722 	0 -0.126845 	-0.0355623 	0 -0.127771 	-0.038214 	0 -0.128679 	-0.0407774 	0 -0.129569 	-0.043255 	0 -0.13048 	-0.045823 	0 -0.131146 	-0.048183 	0 -0.131792 	-0.0505124 	0 -0.132417 	-0.0528118 	0 -0.133022 	-0.0550816 	0 -0.133408 	-0.0565587 	0 -0.133464 	-0.0568203 	0 -0.133519 	-0.0570815 	0 -0.133574 	-0.0573423 	0 -0.133629 	-0.0576028 	0 -0.133683 	-0.0578646 	0 -0.133993 	-0.0602014 	0 -0.134275 	-0.0624612 	0 -0.134535 	-0.0646954 	0 -0.134772 	-0.0669041 	0 -0.135002 	-0.0692219 	0 -0.13499 	-0.0713229 	0 -0.134959 	-0.073399 	0 -0.13491 	-0.0754506 	0 -0.134841 	-0.0774776 	0 -0.134773 	-0.0790536 	0 -0.134754 	-0.079277 	0 -0.134734 	-0.0795002 	0 -0.134715 	-0.0797231 	0 -0.134695 	-0.0799457 	0 -0.134674 	-0.0801698 	0 -0.134238 	-0.0823916 	0 -0.133757 	-0.0845021 	0 -0.133256 	-0.0865913 	0 -0.132734 	-0.0886591 	0 -0.132147 	-0.090876 	0 -0.131773 	-0.0918094 	0 -0.131394 	-0.0927379 	0 -0.131011 	-0.0936614 	0 -0.130625 	-0.09458 	0 -0.130267 	-0.095416 	0 -0.129738 	-0.0966716 	0 -0.129201 	-0.0979196 	0 -0.128657 	-0.0991601 	0 -0.128106 	-0.100393 	0 -0.127514 	-0.101694 	0 -0.126588 	-0.103269 	0 -0.125652 	-0.10483 	0 -0.124705 	-0.106376 	0 -0.123747 	-0.107909 	0 -0.122905 	-0.10923 	0 -0.122461 	-0.109975 	0 -0.122015 	-0.110716 	0 -0.121566 	-0.111455 	0 -0.121116 	-0.112191 	0 -0.120642 	-0.112958 	0 -0.119303 	-0.114738 	0 -0.117952 	-0.116499 	0 -0.11659 	-0.118243 	0 -0.115217 	-0.119968 	0 -0.114016 	-0.12145 	0 -0.1135 	-0.122156 	0 -0.112982 	-0.12286 	0 -0.112463 	-0.123562 	0 -0.111943 	-0.124261 	0 -0.111392 	-0.124997 	0 -0.109994 	-0.126548 	0 -0.10859 	-0.128087 	0 -0.107181 	-0.129612 	0 -0.105767 	-0.131123 	0 -0.104494 	-0.132467 	0 -0.103552 	-0.133607 	0 -0.102609 	-0.134741 	0 -0.101664 	-0.135869 	0 -0.100717 	-0.136992 	0 -0.0996596 	-0.138235 	0 -0.0987252 	-0.139138 	0 -0.0977903 	-0.140038 	0 -0.0968549 	-0.140933 	0 -0.0959192 	-0.141824 	0 -0.0950319 	-0.142665 	0 -0.0932071 	-0.14472 	0 -0.0913825 	-0.146759 	0 -0.0895585 	-0.148782 	0 -0.0877355 	-0.150788 	0 -0.0860371 	-0.152491 	0 -0.0858964 	-0.152647 	0 -0.0857557 	-0.152804 	0 -0.0856149 	-0.152959 	0 -0.0854741 	-0.153115 	0 -0.0853305 	-0.153274 	0 -0.0836521 	-0.1548 	0 -0.0819747 	-0.156311 	0 -0.0802986 	-0.157807 	0 -0.078624 	-0.159289 	0 -0.0770602 	-0.16066 	0 -0.0754372 	-0.1624 	0 -0.0738175 	-0.164125 	0 -0.0722011 	-0.165835 	0 -0.0705884 	-0.16753 	0 -0.0689933 	-0.168978 	0 -0.0687349 	-0.169237 	0 -0.0684766 	-0.169496 	0 -0.0682183 	-0.169754 	0 -0.06796 	-0.170011 	0 -0.0676899 	-0.17028 	0 -0.0663434 	-0.171354 	0 -0.0649991 	-0.172418 	0 -0.063657 	-0.173474 	0 -0.0623172 	-0.17452 	0 -0.0610249 	-0.175524 	0 -0.059611 	-0.176922 	0 -0.058201 	-0.17831 	0 -0.0566961 	-0.179517 	0 -0.0551342 	-0.180609 	0 -0.0536229 	-0.18165 	0 -0.0522481 	-0.182848 	0 -0.0508752 	-0.184031 	0 -0.0495043 	-0.185199 	0 -0.0481354 	-0.186353 	0 -0.0467114 	-0.187319 	0 -0.0462589 	-0.187643 	0 -0.0458064 	-0.187964 	0 -0.0453539 	-0.188284 	0 -0.0449014 	-0.188602 	0 -0.0443984 	-0.188953 	0 -0.0434866 	-0.189435 	0 -0.0425755 	-0.189913 	0 -0.041665 	-0.190386 	0 -0.0407552 	-0.190855 	0 -0.0398566 	-0.191315 	0 -0.0386517 	-0.192124 	0 -0.0372723 	-0.192664 	0 -0.0358927 	-0.193192 	0 -0.0345131 	-0.193708 	0 -0.033153 	-