# vtk DataFile Version 2.0
track0
ASCII
DATASET POLYDATA
POINTS 20002 float
1.11022e-18 0.5 1.11022e-18
0.391304 0.5 1.11022e-18
0.391043 0.499439 1.11022e-18
0.390785 0.498877 1.11022e-18
0.390528 0.498314 1.11022e-18
0.390274 0.49775 1.11022e-18
0.39 0.497135 1.11022e-18
0.389371 0.495708 1.11022e-18
0.388755 0.494275 1.11022e-18
0.388152 0.492837 1.11022e-18
0.387563 0.491393 1.11022e-18
0.387009 0.49 1.11022e-18
0.386232 0.488 1.11022e-18
0.385476 0.485992 1.11022e-18
0.384742 0.483976 1.11022e-18
0.384028 0.481952 1.11022e-18
0.383362 0.48 1.11022e-18
0.382701 0.478 1.11022e-18
0.382058 0.475994 1.11022e-18
0.381432 0.473983 1.11022e-18
0.380822 0.471967 1.11022e-18
0.380245 0.47 1.11022e-18
0.380196 0.469828 1.11022e-18
0.380147 0.469657 1.11022e-18
0.380098 0.469485 1.11022e-18
0.38005 0.469314 1.11022e-18
0.38 0.469138 1.11022e-18
0.379485 0.467311 1.11022e-18
0.378982 0.46548 1.11022e-18
0.378491 0.463645 1.11022e-18
0.378012 0.461808 1.11022e-18
0.377552 0.46 1.11022e-18
0.377055 0.458 1.11022e-18
0.376571 0.455997 1.11022e-18
0.376098 0.453992 1.11022e-18
0.375637 0.451983 1.11022e-18
0.375195 0.45 1.11022e-18
0.374761 0.448 1.11022e-18
0.374337 0.445998 1.11022e-18
0.373923 0.443994 1.11022e-18
0.373519 0.441987 1.11022e-18
0.373129 0.44 1.11022e-18
0.372748 0.438 1.11022e-18
0.372376 0.435998 1.11022e-18
0.372013 0.433995 1.11022e-18
0.371659 0.43199 1.11022e-18
0.371316 0.43 1.11022e-18
0.371053 0.428427 1.11022e-18
0.370795 0.426854 1.11022e-18
0.370542 0.42528 1.11022e-18
0.370294 0.423705 1.11022e-18
0.37 0.4218 1.11022e-18
0.369946 0.42144 1.11022e-18
0.369892 0.42108 1.11022e-18
0.369838 0.42072 1.11022e-18
0.369785 0.42036 1.11022e-18
0.369732 0.42 1.11022e-18
0.369439 0.418 1.11022e-18
0.369153 0.415999 1.11022e-18
0.368874 0.413997 1.11022e-18
0.368603 0.411994 1.11022e-18
0.368341 0.41 1.11022e-18
0.368086 0.408 1.11022e-18
0.367837 0.405999 1.11022e-18
0.367595 0.403998 1.11022e-18
0.36736 0.401995 1.11022e-18
0.367134 0.4 1.11022e-18
0.366913 0.398 1.11022e-18
0.366699 0.395999 1.11022e-18
0.366491 0.393998 1.11022e-18
0.36629 0.391996 1.11022e-18
0.366097 0.39 1.11022e-18
0.36591 0.388 1.11022e-18
0.365729 0.385999 1.11022e-18
0.365553 0.383998 1.11022e-18
0.365384 0.381997 1.11022e-18
0.365222 0.38 1.11022e-18
0.365067 0.378 1.11022e-18
0.364917 0.376 1.11022e-18
0.364773 0.373999 1.11022e-18
0.364634 0.371997 1.11022e-18
0.364503 0.37 1.11022e-18
0.364378 0.368 1.11022e-18
0.364259 0.366 1.11022e-18
0.364145 0.363999 1.11022e-18
0.364037 0.361998 1.11022e-18
0.363936 0.36 1.11022e-18
0.363841 0.358 1.11022e-18
0.363752 0.356 1.11022e-18
0.363668 0.353999 1.11022e-18
0.36359 0.351999 1.11022e-18
0.363519 0.35 1.11022e-18
0.363454 0.348 1.11022e-18
0.363394 0.346 1.11022e-18
0.363341 0.343999 1.11022e-18
0.363293 0.341999 1.11022e-18
0.363252 0.34 1.11022e-18
0.363218 0.338 1.11022e-18
0.363189 0.336 1.11022e-18
0.363167 0.334 1.11022e-18
0.36315 0.332 1.11022e-18
0.36314 0.33 1.11022e-18
0.363137 0.328 1.11022e-18
0.36314 0.326 1.11022e-18
0.363149 0.324 1.11022e-18
0.363165 0.322 1.11022e-18
0.363187 0.32 1.11022e-18
0.363217 0.318 1.11022e-18
0.363253 0.316 1.11022e-18
0.363297 0.314 1.11022e-18
0.363346 0.312001 1.11022e-18
0.363404 0.31 1.11022e-18
0.363469 0.308 1.11022e-18
0.363541 0.306 1.11022e-18
0.36362 0.304001 1.11022e-18
0.363707 0.302002 1.11022e-18
0.363802 0.3 1.11022e-18
0.363905 0.298 1.11022e-18
0.364016 0.296 1.11022e-18
0.364135 0.294001 1.11022e-18
0.364263 0.292003 1.11022e-18
0.364399 0.29 1.11022e-18
0.364545 0.288 1.11022e-18
0.3647 0.286001 1.11022e-18
0.364864 0.284002 1.11022e-18
0.365037 0.282004 1.11022e-18
0.365221 0.28 1.11022e-18
0.365416 0.278 1.11022e-18
0.36562 0.276001 1.11022e-18
0.365835 0.274003 1.11022e-18
0.366061 0.272006 1.11022e-18
0.366301 0.27 1.11022e-18
0.366552 0.268 1.11022e-18
0.366815 0.266002 1.11022e-18
0.36709 0.264005 1.11022e-18
0.367379 0.26201 1.11022e-18
0.367685 0.26 1.11022e-18
0.368004 0.258 1.11022e-18
0.368337 0.256002 1.11022e-18
0.368686 0.254007 1.11022e-18
0.369051 0.252015 1.11022e-18
0.369439 0.25 1.11022e-18
0.369551 0.249443 1.11022e-18
0.369665 0.248887 1.11022e-18
0.36978 0.248331 1.11022e-18
0.369896 0.247775 1.11022e-18
0.37 0.247287 1.11022e-18
0.370313 0.245829 1.11022e-18
0.370637 0.244374 1.11022e-18
0.370972 0.242922 1.11022e-18
0.371317 0.241472 1.11022e-18
0.371681 0.24 1.11022e-18
0.372192 0.238 1.11022e-18
0.372728 0.236006 1.11022e-18
0.373288 0.234019 1.11022e-18
0.373874 0.23204 1.11022e-18
0.37451 0.23 1.11022e-18
0.375169 0.228 1.11022e-18
0.375859 0.226011 1.11022e-18
0.376584 0.224034 1.11022e-18
0.377345 0.22207 1.11022e-18
0.378196 0.22 1.11022e-18
0.378557 0.219176 1.11022e-18
0.378925 0.218355 1.11022e-18
0.379302 0.217538 1.11022e-18
0.379687 0.216725 1.11022e-18
0.38 0.216082 1.11022e-18
0.380605 0.214866 1.11022e-18
0.38123 0.213659 1.11022e-18
0.381876 0.212464 1.11022e-18
0.382542 0.21128 1.11022e-18
0.383295 0.21 1.11022e-18
0.384529 0.208 1.11022e-18
0.385835 0.206046 1.11022e-18
0.387216 0.204144 1.11022e-18
0.388676 0.202302 1.11022e-18
0.39 0.20078 1.11022e-18
0.390148 0.200624 1.11022e-18
0.390296 0.200469 1.11022e-18
0.390446 0.200314 1.11022e-18
0.390595 0.20016 1.11022e-18
0.390752 0.2 1.11022e-18
0.392602 0.198134 1.11022e-18
0.394554 0.196375 1.11022e-18
0.396608 0.194738 1.11022e-18
0.398761 0.193233 1.11022e-18
0.4 0.192484 1.11022e-18
0.400896 0.191987 1.11022e-18
0.401803 0.191513 1.11022e-18
0.402723 0.191062 1.11022e-18
0.403653 0.190634 1.11022e-18
0.405126 0.19 1.11022e-18
0.406101 0.189625 1.11022e-18
0.407085 0.189274 1.11022e-18
0.408077 0.188949 1.11022e-18
0.409078 0.188648 1.11022e-18
0.41 0.188396 1.11022e-18
0.412 0.187895 1.11022e-18
0.41402 0.187483 1.11022e-18
0.416056 0.187158 1.11022e-18
0.418104 0.186919 1.11022e-18
0.42 0.186772 1.11022e-18
0.422 0.186685 1.11022e-18
0.424002 0.186665 1.11022e-18
0.426003 0.18671 1.11022e-18
0.428002 0.186817 1.11022e-18
0.43 0.18698 1.11022e-18
0.432 0.187198 1.11022e-18
0.433994 0.187466 1.11022e-18
0.43598 0.187784 1.11022e-18
0.437959 0.188148 1.11022e-18
0.44 0.18857 1.11022e-18
0.441249 0.188856 1.11022e-18
0.442494 0.189158 1.11022e-18
0.443735 0.189475 1.11022e-18
0.444972 0.189806 1.11022e-18
0.445662 0.19 1.11022e-18
0.446529 0.190249 1.11022e-18
0.447395 0.190506 1.11022e-18
0.448259 0.190769 1.11022e-18
0.44912 0.191038 1.11022e-18
0.45 0.191321 1.11022e-18
0.452 0.191981 1.11022e-18
0.453988 0.192676 1.11022e-18
0.455965 0.193403 1.11022e-18
0.45793 0.19416 1.11022e-18
0.46 0.194993 1.11022e-18
0.462 0.195833 1.11022e-18
0.463987 0.196703 1.11022e-18
0.465962 0.197601 1.11022e-18
0.467925 0.198526 1.11022e-18
0.47 0.199538 1.11022e-18
0.470183 0.19963 1.11022e-18
0.470367 0.199723 1.11022e-18
0.47055 0.199816 1.11022e-18
0.470733 0.199909 1.11022e-18
0.470911 0.2 1.11022e-18
0.472729 0.20093 1.11022e-18
0.474535 0.201882 1.11022e-18
0.47633 0.202855 1.11022e-18
0.478113 0.203849 1.11022e-18
0.48 0.204929 1.11022e-18
0.481724 0.205944 1.11022e-18
0.483436 0.206977 1.11022e-18
0.485137 0.208028 1.11022e-18
0.486827 0.209098 1.11022e-18
0.488221 0.21 1.11022e-18
0.488577 0.210235 1.11022e-18
0.488932 0.21047 1.11022e-18
0.489287 0.210706 1.11022e-18
0.489641 0.210944 1.11022e-18
0.49 0.211185 1.11022e-18
0.492 0.212538 1.11022e-18
0.493982 0.213917 1.11022e-18
0.495945 0.215323 1.11022e-18
0.49789 0.216753 1.11022e-18
0.5 0.218345 1.11022e-18
0.500427 0.218676 1.11022e-18
0.500853 0.219008 1.11022e-18
0.501278 0.219341 1.11022e-18
0.501702 0.219676 1.11022e-18
0.50211 0.22 1.11022e-18
0.503688 0.221259 1.11022e-18
0.505252 0.222535 1.11022e-18
0.506801 0.223829 1.11022e-18
0.508336 0.22514 1.11022e-18
0.51 0.226593 1.11022e-18
0.510762 0.227274 1.11022e-18
0.511521 0.22796 1.11022e-18
0.512275 0.22865 1.11022e-18
0.513026 0.229344 1.11022e-18
0.513728 0.23 1.11022e-18
0.514982 0.231185 1.11022e-18
0.516225 0.232382 1.11022e-18
0.517455 0.233591 1.11022e-18
0.518674 0.234813 1.11022e-18
0.52 0.236168 1.11022e-18
0.520734 0.236934 1.11022e-18
0.521464 0.237705 1.11022e-18
0.522188 0.23848 1.11022e-18
0.522909 0.23926 1.11022e-18
0.523584 0.24 1.11022e-18
0.524867 0.241422 1.11022e-18
0.526134 0.242858 1.11022e-18
0.527385 0.244309 1.11022e-18
0.528619 0.245773 1.11022e-18
0.53 0.247449 1.11022e-18
0.53041 0.247959 1.11022e-18
0.530818 0.248471 1.11022e-18
0.531223 0.248984 1.11022e-18
0.531627 0.249499 1.11022e-18
0.532017 0.25 1.11022e-18
0.533563 0.252 1.11022e-18
0.535078 0.254023 1.11022e-18
0.536563 0.256069 1.11022e-18
0.538018 0.258136 1.11022e-18
0.53929 0.26 1.11022e-18
0.539432 0.260214 1.11022e-18
0.539574 0.260428 1.11022e-18
0.539715 0.260642 1.11022e-18
0.539856 0.260857 1.11022e-18
0.54 0.261076 1.11022e-18
0.541166 0.262861 1.11022e-18
0.54231 0.26466 1.11022e-18
0.543433 0.266472 1.11022e-18
0.544534 0.268298 1.11022e-18
0.545533 0.27 1.11022e-18
0.546427 0.27156 1.11022e-18
0.547305 0.273128 1.11022e-18
0.548167 0.274705 1.11022e-18
0.549015 0.27629 1.11022e-18
0.55 0.278175 1.11022e-18
0.550186 0.27854 1.11022e-18
0.550371 0.278905 1.11022e-18
0.550555 0.279271 1.11022e-18
0.550738 0.279637 1.11022e-18
0.550919 0.28 1.11022e-18
0.55191 0.282 1.11022e-18
0.552879 0.284011 1.11022e-18
0.553825 0.286033 1.11022e-18
0.554749 0.288064 1.11022e-18
0.555605 0.29 1.11022e-18
0.556465 0.292 1.11022e-18
0.557306 0.294009 1.11022e-18
0.558126 0.296025 1.11022e-18
0.558927 0.29805 1.11022e-18
0.559677 0.3 1.11022e-18
0.559741 0.300173 1.11022e-18
0.559806 0.300346 1.11022e-18
0.55987 0.300519 1.11022e-18
0.559935 0.300692 1.11022e-18
0.56 0.300868 1.11022e-18
0.560675 0.302695 1.11022e-18
0.561336 0.304526 1.11022e-18
0.561982 0.306363 1.11022e-18
0.562614 0.308205 1.11022e-18
0.563215 0.31 1.11022e-18
0.563867 0.312 1.11022e-18
0.564504 0.314005 1.11022e-18
0.565126 0.316015 1.11022e-18
0.565732 0.318029 1.11022e-18
0.566309 0.32 1.11022e-18
0.566878 0.322 1.11022e-18
0.567433 0.324004 1.11022e-18
0.567974 0.326012 1.11022e-18
0.568502 0.328023 1.11022e-18
0.569006 0.33 1.11022e-18
[...]
POINT_DATA 20002
 FIELD attributes 1
U 3 20002 float
-2.39147e-19 	-8.72502e-18 	0
0.075701 	0.162775 	0 0.0753204 	0.163671 	0 0.0749411 	0.164563 	0 0.074563 	0.165451 	0 0.074186 	0.166335 	0 0.0737769 	0.167294 	0 0.0728252 	0.169477 	0 0.071881 	0.171638 	0 0.0709441 	0.173779 	0 0.0700145 	0.175898 	0 0.0691279 	0.177916 	0 0.0680063 	0.180795 	0 0.0668977 	0.183639 	0 0.0657049 	0.186348 	0 0.0644561 	0.18895 	0 0.0632644 	0.191416 	0 0.062203 	0.193908 	0 0.0611497 	0.196369 	0 0.0601046 	0.198797 	0 0.0590674 	0.201196 	0 0.0580352 	0.20347 	0 0.0579468 	0.203652 	0 0.0578583 	0.203835 	0 0.0577699 	0.204017 	0 0.0576816 	0.204199 	0 0.0575913 	0.204385 	0 0.0566508 	0.20625 	0 0.0557145 	0.208092 	0 0.0547823 	0.209912 	0 0.0538543 	0.211709 	0 0.0529465 	0.213455 	0 0.0521114 	0.215366 	0 0.0512113 	0.217184 	0 0.0501995 	0.218861 	0 0.0491907 	0.220514 	0 0.0481987 	0.222119 	0 0.0473687 	0.223718 	0 0.0465414 	0.225297 	0 0.0457167 	0.226856 	0 0.0447192 	0.228214 	0 0.0437255 	0.229526 	0 0.0428948 	0.230831 	0 0.0420655 	0.232116 	0 0.0412376 	0.233381 	0 0.040411 	0.234626 	0 0.0394523 	0.235697 	0 0.0387974 	0.236504 	0 0.0381428 	0.237299 	0 0.0374884 	0.238082 	0 0.0368342 	0.238853 	0 0.0360439 	0.239771 	0 0.0358941 	0.239928 	0 0.0357444 	0.240085 	0 0.0355947 	0.240241 	0 0.035445 	0.240397 	0 0.0352955 	0.240552 	0 0.0344839 	0.241281 	0 0.0336461 	0.241962 	0 0.0328082 	0.242626 	0 0.03197 	0.243274 	0 0.0311361 	0.243901 	0 0.0304459 	0.244542 	0 0.0296087 	0.244991 	0 0.0287708 	0.245422 	0 0.027932 	0.245838 	0 0.0270959 	0.246234 	0 0.0264048 	0.246655 	0 0.0256572 	0.246992 	0 0.0248218 	0.247206 	0 0.0239851 	0.247403 	0 0.0231499 	0.247583 	0 0.0224519 	0.247785 	0 0.021753 	0.247973 	0 0.0209414 	0.248007 	0 0.0201087 	0.248 	0 0.0192766 	0.247976 	0 0.0185733 	0.24797 	0 0.0178686 	0.247951 	0 0.0171127 	0.247854 	0 0.0162851 	0.247654 	0 0.0154573 	0.247438 	0 0.0147495 	0.247233 	0 0.0140401 	0.247015 	0 0.0133205 	0.246771 	0 0.0124979 	0.246388 	0 0.0116744 	0.245989 	0 0.0109624 	0.245593 	0 0.0102485 	0.245182 	0 0.00953257 	0.244756 	0 0.00873117 	0.244218 	0 0.00791083 	0.243642 	0 0.00719419 	0.24306 	0 0.00647528 	0.242462 	0 0.00575407 	0.241848 	0 0.00496845 	0.241153 	0 0.00414908 	0.240406 	0 0.00342668 	0.23964 	0 0.00270168 	0.238857 	0 0.00197405 	0.238058 	0 0.0011924 	0.237194 	0 0.00037069 	0.236277 	0 -0.000359224 	0.235328 	0 -0.00109211 	0.234361 	0 -0.00182798 	0.233376 	0 -0.00261652 	0.232334 	0 -0.00344496 	0.231245 	0 -0.00418486 	0.230109 	0 -0.00492816 	0.228954 	0 -0.00567489 	0.22778 	0 -0.00648109 	0.226552 	0 -0.00732122 	0.225284 	0 -0.00807414 	0.223954 	0 -0.00883097 	0.222604 	0 -0.00959178 	0.221233 	0 -0.010427 	0.21981 	0 -0.0112839 	0.218354 	0 -0.0120534 	0.216821 	0 -0.0128273 	0.215266 	0 -0.0136115 	0.213686 	0 -0.0144828 	0.212059 	0 -0.0153619 	0.210401 	0 -0.0161517 	0.208652 	0 -0.016947 	0.206879 	0 -0.0177836 	0.205074 	0 -0.0186806 	0.203233 	0 -0.0195876 	0.201355 	0 -0.0204025 	0.199374 	0 -0.0212239 	0.197363 	0 -0.0221288 	0.195321 	0 -0.0230574 	0.193246 	0 -0.0239993 	0.191125 	0 -0.0248453 	0.188887 	0 -0.0257336 	0.186619 	0 -0.0266916 	0.184319 	0 -0.0276594 	0.181981 	0 -0.0286456 	0.179584 	0 -0.0295315 	0.177059 	0 -0.0305248 	0.17451 	0 -0.03153 	0.171917 	0 -0.0325474 	0.169279 	0 -0.0335912 	0.166557 	0 -0.0338569 	0.165763 	0 -0.0341467 	0.16497 	0 -0.0344376 	0.164174 	0 -0.0347296 	0.163374 	0 -0.0349872 	0.162667 	0 -0.0357397 	0.16059 	0 -0.0364996 	0.158487 	0 -0.0372671 	0.156357 	0 -0.0380424 	0.154198 	0 -0.0389044 	0.152023 	0 -0.0399822 	0.148884 	0 -0.0410777 	0.145685 	0 -0.0421914 	0.142424 	0 -0.0433936 	0.139156 	0 -0.0446885 	0.135726 	0 -0.0458639 	0.132129 	0 -0.0470637 	0.128457 	0 -0.0483797 	0.124785 	0 -0.0497295 	0.121031 	0 -0.0511965 	0.116945 	0 -0.0517465 	0.115203 	0 -0.0523209 	0.113463 	0 -0.0529215 	0.111724 	0 -0.0535287 	0.109967 	0 -0.0540163 	0.108557 	0 -0.0549094 	0.106002 	0 -0.0558165 	0.103409 	0 -0.056738 	0.100776 	0 -0.0577145 	0.0981569 	0 -0.0588189 	0.0952772 	0 -0.0604519 	0.0904943 	0 -0.0621365 	0.0855875 	0 -0.0639567 	0.080682 	0 -0.0658382 	0.0756563 	0 -0.0675015 	0.0712318 	0 -0.0676728 	0.0707825 	0 -0.0678446 	0.0703323 	0 -0.0680202 	0.0698875 	0 -0.0682007 	0.0694498 	0 -0.0683894 	0.0689923 	0 -0.0704528 	0.0634898 	0 -0.0725811 	0.057877 	0 -0.0748064 	0.052255 	0 -0.0771221 	0.0466373 	0 -0.0784244 	0.043508 	0 -0.0792958 	0.0414162 	0 -0.0801765 	0.0393365 	0 -0.0810794 	0.0373108 	0 -0.0819854 	0.0352843 	0 -0.083408 	0.0321118 	0 -0.084303 	0.0300243 	0 -0.0852013 	0.0279422 	0 -0.0861025 	0.025867 	0 -0.0870088 	0.0238231 	0 -0.0878451 	0.0220029 	0 -0.0895296 	0.0182517 	0 -0.0912138 	0.0145411 	0 -0.0928946 	0.0108766 	0 -0.094572 	0.00733381 	0 -0.0961135 	0.00417238 	0 -0.0976045 	0.000948901 	0 -0.0990842 	-0.0022253 	0 -0.100552 	-0.00534903 	0 -0.102003 	-0.00834569 	0 -0.103442 	-0.0112546 	0 -0.10475 	-0.0141273 	0 -0.106044 	-0.0169541 	0 -0.107324 	-0.0197354 	0 -0.10859 	-0.022472 	0 -0.109878 	-0.0251618 	0 -0.110581 	-0.0267953 	0 -0.111279 	-0.0284133 	0 -0.111972 	-0.030016 	0 -0.112661 	-0.0316037 	0 -0.113043 	-0.0324833 	0 -0.113494 	-0.0336029 	0 -0.113942 	-0.0347156 	0 -0.114386 	-0.0358213 	0 -0.114828 	-0.0369203 	0 -0.115276 	-0.0380385 	0 -0.11615 	-0.0405974 	0 -0.116992 	-0.0430099 	0 -0.117819 	-0.0453911 	0 -0.118632 	-0.0477417 	0 -0.119478 	-0.0502002 	0 -0.12013 	-0.0525696 	0 -0.120768 	-0.0549072 	0 -0.121393 	-0.0572137 	0 -0.122005 	-0.0594896 	0 -0.122633 	-0.0618325 	0 -0.12267 	-0.0620311 	0 -0.122708 	-0.0622295 	0 -0.122745 	-0.0624276 	0 -0.122782 	-0.0626255 	0 -0.122818 	-0.0628187 	0 -0.123089 	-0.0648699 	0 -0.123348 	-0.0669 	0 -0.123596 	-0.0689092 	0 -0.123831 	-0.0708978 	0 -0.124071 	-0.0729936 	0 -0.124111 	-0.0748736 	0 -0.124142 	-0.076734 	0 -0.124163 	-0.0785747 	0 -0.124175 	-0.0803962 	0 -0.124178 	-0.0818926 	0 -0.124157 	-0.0822974 	0 -0.124136 	-0.0827013 	0 -0.124115 	-0.0831044 	0 -0.124092 	-0.0835067 	0 -0.124069 	-0.0839144 	0 -0.123728 	-0.086138 	0 -0.12337 	-0.0883241 	0 -0.122977 	-0.0904071 	0 -0.122572 	-0.0924699 	0 -0.122117 	-0.0947058 	0 -0.12197 	-0.0951376 	0 -0.121823 	-0.0955683 	0 -0.121675 	-0.0959981 	0 -0.121527 	-0.0964269 	0 -0.121384 	-0.0968396 	0 -0.120762 	-0.0985895 	0 -0.120132 	-0.100326 	0 -0.119495 	-0.102049 	0 -0.11885 	-0.103759 	0 -0.118137 	-0.105616 	0 -0.117708 	-0.106419 	0 -0.117277 	-0.107219 	0 -0.116846 	-0.108016 	0 -0.116413 	-0.108809 	0 -0.116005 	-0.109552 	0 -0.11524 	-0.11103 	0 -0.11447 	-0.112499 	0 -0.113697 	-0.113959 	0 -0.11292 	-0.115409 	0 -0.112062 	-0.116994 	0 -0.111485 	-0.117809 	0 -0.110908 	-0.118622 	0 -0.11033 	-0.119431 	0 -0.109751 	-0.120237 	0 -0.109204 	-0.120995 	0 -0.108156 	-0.122621 	0 -0.107106 	-0.124236 	0 -0.106054 	-0.125843 	0 -0.104999 	-0.127439 	0 -0.103801 	-0.129239 	0 -0.103386 	-0.129725 	0 -0.102972 	-0.13021 	0 -0.102558 	-0.130694 	0 -0.102144 	-0.131178 	0 -0.101742 	-0.131646 	0 -0.100188 	-0.133761 	0 -0.0986349 	-0.135864 	0 -0.097084 	-0.137955 	0 -0.0955255 	-0.140009 	0 -0.0940947 	-0.141731 	0 -0.0939385 	-0.141949 	0 -0.0937823 	-0.142168 	0 -0.093626 	-0.142386 	0 -0.0934698 	-0.142604 	0 -0.09331 	-0.142827 	0 -0.0918751 	-0.14443 	0 -0.0904426 	-0.146021 	0 -0.0890125 	-0.1476 	0 -0.0875852 	-0.149167 	0 -0.0862662 	-0.150607 	0 -0.0851423 	-0.152091 	0 -0.0840212 	-0.153568 	0 -0.0829028 	-0.155037 	0 -0.0817872 	-0.156498 	0 -0.0804705 	-0.158217 	0 -0.0801958 	-0.158498 	0 -0.0799214 	-0.158779 	0 -0.0796473 	-0.159059 	0 -0.0793734 	-0.159339 	0 -0.0791026 	-0.159616 	0 -0.0777255 	-0.161354 	0 -0.0762605 	-0.162885 	0 -0.0748003 	-0.164404 	0 -0.073345 	-0.16591 	0 -0.0719699 	-0.167327 	0 -0.0706891 	-0.168992 	0 -0.0694137 	-0.170646 	0 -0.0681438 	-0.172289 	0 -0.0668793 	-0.173922 	0 -0.0656397 	-0.175415 	0 -0.0655343 	-0.175547 	0 -0.065429 	-0.17568 	0 -0.0653237 	-0.175812 	0 -0.0652184 	-0.175944 	0 -0.0651109 	-0.176079 	0 -0.0639304 	-0.177225 	0 -0.0627542 	-0.178365 	0 -0.0615822 	-0.179499 	0 -0.0604145 	-0.180627 	0 -0.0592837 	-0.181717 	0 -0.0581799 	-0.183128 	0 -0.0570813 	-0.184534 	0 -0.0558985 	-0.185756 	0 -0.0546688 	-0.186868 	0 -0.0534718 	-0.187944 	0 -0.0524106 	-0.189215 	0 -0.0513529 	-0.190477 	0 -0.0502985 	-0.19173 	0 -0.0492476 	-0.192974 	0 -0.0481241 	-0.194001 	0 -0.0477094 	-0.194445 	0 -0.0472951 	-0.194887 	0 -0.046881 	-0.195328 	0 -0.0464673 	-0.195767 	0 -0.0460099 	-0.19625 	0 -0.0453777 	-0.196747 	0 -0.0447467 	-0.197242 	0 -0.0441167 	-0.197736 	0 -0.0434878 	-0.198228 	0 -0.0428652 	-0.198714 	0 -0.0419426 	-0.19968 	0 -0.0408867 	-0.20039 	0 -0.0398326 	-0.201092 	0 -0.0387804 	-0.201787 	0 -0.0377423 	-0.202468 	0 -0.0368543 	-0.203315 	0 -0.0359682 	-0.204156 	0 -0.0349339 	-0.204722 	0 -0.0338894 	-0.20526 	0 -0.0328552 	-0.205784 	0 -0.0319664 	-0.206451 	0 -0.0310784 	-0.207111 	0 -0.0301914 	-0.207763 	0 -0.0291502 	-0.208143 	0 -0.0281103 	-0.208501 	0 -0.0272097 	-0.208973 	0 -0.0263092 	-0.209437 	0 -0.0254087 	-0.209892 	0 -0.0244772 	-0.210289 	0 -0.0234225 	-0.21047 	0 -0.0225 	-0.210736 	0 -0.0215768 	-0.210992 	0 -0.0206529 	-0.211238 	0 -0.0197285 	-0.211474 	0 -0.0187131 	-0.211563 	0 -0.0177591 	-0.211612 	0 -0.0168037 	-0.211649 	0 -0.0158469 	-0.211676 	0 -0.0148888 	-0.211691 	0 -0.0139086 	-0.211664 	0 -0.0134723 	-0.211586 	0 -0.0130356 	-0.211505 	0 -0.0125985 	-0.211423 	0 -0.012161 	-0.211337 	0 -0.0115685 	-0.211219 	0 -0.0110373 	-0.211072 	0 -0.0105055 	-0.210924 	0 -0.00997331 	-0.210774 	0 -0.00944056 	-0.210621 	0 -0.00890798 	-0.210467 	0 -0.00788938 	-0.210036 	0 -0.00684161 	-0.209563 	0 -0.00579102 	-0.209083 	0 -0.00473759 	-0.208594 	0 -0.00368314 	-0.208097 	0 -0.00263869 	-0.20748 	0 -0.0015324 	-0.206792 	0 -0.000422136 	-0.206094 	0 0.0006921 	-0.205387 	0 0.00180975 	-0.204669 	0 0.00291651 	-0.203821 	0 0.00409258 	-0.202908 	0 0.00527397 	-0.201983 	0 0.00646073 	-0.201046 	0 0.00765408 	-0.200095 	0 0.00886209 	-0.198987 	0 0.0101208 	-0.197837 	0 0.0113866 	-0.196674 	0 0.0126594 	-0.195496 	0 0.0134153 	-0.194792 	0 0.0135207 	-0.194687 	0 0.0136261 	-0.194582 	0 0.0137316 	-0.194477 	0 0.0138371 	-0.194372 	0 0.013947 	-0.194267 	0 0.015284 	-0.19282 	0 0.0166289 	-0.191351 	0 0.0179818 	-0.189858 	0 0.0193428 	-0.188342 	0 0.020788 	-0.186807 	0 0.0222277 	-0.185074 	0 0.0236775 	-0.183315 	0 0.0251374 	-0.18153 	0 0.0266077 	-0.179718 	0 0.0282645 	-0.177936 	0 0.0298229 	-0.175902 	0 0.0313941 	-0.173839 	0 0.0329783 	-0.171746 	0 0.0346896 	-0.16971 	0 0.0365053 	-0.167645 	0 0.0382026 	-0.165292 	0 0.0399163 	-0.162907 	0 0.0417463 	-0.16059 	0 0.0436718 	-0.158317 	0 0.0456793 	-0.155935 	0 0.0475436 	-0.153242 	0 0.0495494 	-0.150665 	0 0.0516444 	-0.148136 	0 0.0537634 	-0.145572 	0 0.0560236 	-0.142829 	0 0.0561312 	-0.14267 	0 0.056245 	-0.14252 	0 0.0563631 	-0.142376 	0 0.0564812 	-0.142233 	0 0.0565964 	-0.142093 	0 0.0586292 	-0.139314 	0 0.0606813 	-0.136499 	0 0.0627525 	-0.133646 	0 0.0649156 	-0.130901 	0 0.0673849 	-0.128058 	0 0.0697499 	-0.124764 	0 0.0721619 	-0.121478 	0 0.0747627 	-0.118505 	0 0.0773881 	-0.115499 	0 0.0800245 	-0.112476 	0 0.0801049 	-0.112369 	0 0.0801852 	-0.112262 	0 0.080266 	-0.112155 	0 0.0803516 	-0.112061 	0 0.0804377 	-0.111965 	0 0.0830665 	-0.108486 	0 0.0857122 	-0.104978 	0 0.0884026 	-0.101517 	0 0.0912581 	-0.0984134 	0 0.0948758 	-0.0944702 	0 0.0953482 	-0.0938494 	0 0.0958211 	-0.0932285 	0 0.0963115 	-0.0926508 	0 0.0968198 	-0.0921172 	0 0.0973003 	-0.091613 	0 0.0998236 	-0.0883248 	0 0.102345 	-0.0850288 	0 0.104957 	-0.0819881 	0 0.107632 	-0.079139 	0 0.110965 	-0.0755776 	0 0.111034 	-0.0754823 	0 0.111103 	-0.0753871 	0 0.111176 	-0.0753039 	0 0.111249 	-0.075221 	0 0.111323 	-0.075137 	0 0.113423 	-0.0723093 	0 0.115512 	-0.069487 	0 0.11759 	-0.0666718 	0 0.119791 	-0.0642839 	0 0.121642 	-0.0622703 	0 0.123065 	-0.0601266 	0 0.1245 	-0.0580771 	0 0.125975 	-0.0562397 	0 0.127437 	-0.0544044 	0 0.129481 	-0.0518212 	0 0.129648 	-0.0515708 	0 0.129815 	-0.0513204 	0 0.129983 	-0.0510702 	0 0.130155 	-0.0508378 	0 0.130333 	-0.0506311 	0 0.131634 	-0.0483145 	0 0.132922 	-0.0460033 	0 0.134194 	-0.0436983 	0 0.135493 	-0.0415853 	0 0.136729 	-0.0397757 	0 0.137692 	-0.0374884 	0 0.138638 	-0.0352041 	0 0.139592 	-0.0331282 	0 0.140545 	-0.0311781 	0 0.141441 	-0.0293142 	0 0.142068 	-0.0269939 	0 0.142679 	-0.0248376 	0 0.143275 	-0.0228261 	0 0.143854 	-0.0208131 	0 0.144401 	-0.0188563 	0 0.144684 	-0.0165214 	0 0.144927 	-0.0144167 	0 0.145152 	-0.0123082 	0 0.145361 	-0.0101964 	0 0.14555 	-0.00811626 	0 0.145462 	-0.00578884 	0 0.145335 	-0.00356123 	0 0.145191 	-0.00132793 	0 0.14503 	0.00091058 	0 0.144853 	0.00314245 	0 0.144394 	0.00558535 	0 0.143897 	0.00796115 	0 0.143384 	0.0103447 	0 0.142853 	0.0127354 	0 0.142301 	0.0151515 	0 0.141506 	0.0178502 	0 0.140638 	0.0204022 	0 0.139756 	0.0229641 	0 0.138858 	0.025535 	0 0.137921 	0.028181 	0 0.136795 	0.0311681 	0 0.135618 	0.0340758 	0 0.134371 	0.0368527 	0 0.133113 	0.0396401 	0 0.131775 	0.0425869 	0 0.130281 	0.0458096 	0 0.128777 	0.0490373 	0 0.127264 	0.0522681 	0 0.125742 	0.0554997 	0 0.12399 	0.0588717 	0 0.123555 	0.0596983 	0 0.12312 	0.060525 	0 0.122686 	0.0613519 	0 0.122251 	0.0621789 	0 0.121875 	0.0628944 	0 0.120417 	0.065732 	0 0.118962 	0.0685715 	0 0.117509 	0.0714113 	0 0.116061 	0.07425 	0 0.114423 	0.0774683 	0 0.112685 	0.0808674 	0 0.110958 	0.0842548 	0 0.109243 	0.0876282 	0 0.107541 	0.0909854 	0 0.106419 	0.0932031 	0 0.105828 	0.0944212 	0 0.10524 	0.0956368 	0 0.104653 	0.09685 	0 0.104068 	0.0980606 	0 0.103437 	0.09937 	0 0.101554 	0.103233 	0 0.0996951 	0.107063 	0 0.097862 	0.110859 	0 0.0960547 	0.11462 	0 0.0947146 	0.117421 	0 0.094001 	0.119005 	0 0.0932923 	0.120582 	0 0.0925885 	0.122152 	0 0.0918895 	0.123716 	0 0.0911031 	0.12548 	0 0.0899064 	0.128117 	0 0.0887244 	0.130734 	0 0.087557 	0.133331 	0 0.0864042 	0.135907 	0 0.0853856 	0.138194 	0 0.0838899 	0.14183 	0 0.0824226 	0.145428 	0 0.0809831 	0.148987 	0 0.0795706 	0.152508 	0 0.0778074 	0.156904 	0 0.0777843 	0.156961 	0 0.0777613 	0.157017 	0 0.0777383 	0.157074 	0 0.0777153 	0.15713 	0 0.0776922 	0.157187 	0 0.0763045 	0.160501 	0 0.0749376 	0.163776 	0 0.0735909 	0.16701 	0 0.072264 	0.170206 	0 0.0710445 	0.173151 	0 0.0699022 	0.176255 	0 0.0687774 	0.179326 	0 0.0676695 	0.182365 	0 0.0665279 	0.185318 	0 0.0653431 	0.187993 	0 0.0648392 	0.189284 	0 0.0643379 	0.190568 	0 0.0638392 	0.191845 	0 0.063343 	0.193115 	0 0.0627829 	0.194548 	0 0.0622543 	0.195851 	0 0.0617286 	0.197147 	0 0.0612056 	0.198436 	0 0.0606853 	0.199719 	0 0.0601747 	0.200977 	0 0.0593276 	0.203446 	0 0.0583333 	0.205733 	0 0.0573202 	0.207969 	0 0.0563143 	0.210179 	0 0.0553363 	0.212319 	0 0.0545125 	0.214463 	0 0.053695 	0.216588 	0 0.0528784 	0.218686 	0 0.0518813 	0.220575 	0 0.0509036 	0.222412 	0 0.050086 	0.224246 	0 0.0492726 	0.22606 	0 0.0484631 	0.227855 	0 0.0476576 	0.22963 	0 0.0467563 	0.231255 	0 0.0463917 	0.231938 	0 0.0460275 	0.232618 	0 0.0456639 	0.233294 	0 0.0453008 	0.233965 	0 0.0448995 	0.234705 	0 0.0444548 	0.235466 	0 0.0440108 	0.236221 	0 0.0435676 	0.236973 	0 0.0431251 	0.237719 	0 0.0426853 	0.238457 	0 0.0419708 	0.239748 	0 0.0411434 	0.240898 	0 0.0403173 	0.242031 	0 0.0394927 	0.243149 	0 0.038675 	0.244243 	0 0.0380174 	0.245352 	0 0.0372929 	0.24637 	0 0.0364597 	0.24725 	0 0.035627 	0.248113 	0 0.0347993 	0.248956 	0 0.0341286 	0.249819 	0 0.0334583 	0.250669 	0 0.032697 	0.251397 	0 0.0318594 	0.252022 	0 0.0310252 	0.252627 	0 0.0303429 	0.253256 	0 0.0296605 	0.253871 	0 0.0289781 	0.254473 	0 0.0281643 	0.254903 	0 0.0273276 	0.255285 	0 0.0266361 	0.255692 	0 0.0259441 	0.256085 	0 0.0252515 	0.256464 	0 0.0245229 	0.256787 	0 0.0236871 	0.256959 	0 0.0229888 	0.257155 	0 0.0222895 	0.257337 	0 0.0215893 	0.257506 	0 0.0208881 	0.257661 	0 0.0200883 	0.257678 	0 0.0193851 	0.257673 	0 0.0186805 	0.257655 	0 0.0179747 	0.257623 	0 0.0172676 	0.257578 	0 0.0165181 	0.257465 	0 0.0158112 	0.25727 	0 0.0151028 	0.25706 	0 0.0143927 	0.256837 	0 0.0136811 	0.256599 	0 0.0129648 	0.256342 	0 0.0128635 	0.256288 	0 0.0127621 	0.256234 	0 0.0126607 	0.256179 	0 0.0125593 	0.256124 	0 0.0124499 	0.256065 	0 0.0118403 	0.255705 	0 0.0112294 	0.255336 	0 0.0106171 	0.254958 	0 0.0100036 	0.25457 	0 0.00938931 	0.254174 	0 0.00869681 	0.253625 	0 0.00798062 	0.253032 	0 0.00726232 	0.252426 	0 0.00654189 	0.251807 	0 0.00581996 	0.251174 	0 0.00513969 	0.25048 	0 0.0044198 	0.249721 	0 0.00369746 	0.248947 	0 0.00297266 	0.24816 	0 0.00224574 	0.247358 	0 0.00156756 	0.246503 	0 0.000842215 	0.245578 	0 0.000114056 	0.244637 	0 -0.000616945 	0.243681 	0 -0.00135072 	0.24271 	0 -0.0020363 	0.241681 	0 -0.00276955 	0.240586 	0 -0.00350604 	0.239474 	0 -0.0042458 	0.238346 	0 -0.0049891 	0.237201 	0 -0.00569157 	0.235985 	0 -0.00643565 	0.234714 	0 -0.00718348 	0.233424 	0 -0.0079351 	0.232117 	0 -0.00869121 	0.230791 	0 -0.00942071 	0.229375 	0 -0.0101789 	0.227919 	0 -0.0109414 	0.226443 	0 -0.0117084 	0.224948 	0 -0.012481 	0.22343 	0 -0.0125643 	0.22325 	0 -0.0126507 	0.223067 	0 -0.0127371 	0.222884 	0 -0.0128236 	0.2227 	0 -0.0129037 	0.22253 	0 -0.0135891 	0.221053 	0 -0.0142785 	0.219557 	0 -0.0149717 	0.218044 	0 -0.015669 	0.216512 	0 -0.016396 	0.214953 	0 -0.017182 	0.213095 	0 -0.0179737 	0.211211 	0 -0.0187713 	0.209302 	0 -0.0195749 	0.207367 	0 -0.0204475 	0.205396 	0 -0.0212556 	0.203311 	0 -0.0220705 	0.201197 	0 -0.0228925 	0.199055 	0 -0.0237337 	0.196884 	0 -0.0246695 	0.194675 	0 -0.0255046 	0.192342 	0 -0.0263482 	0.189976 	0 -0.0272005 	0.187576 	0 -0.0281289 	0.185153 	0 -0.0291038 	0.182676 	0 -0.0299734 	0.180066 	0 -0.0308537 	0.177418 	0 -0.0317823 	0.174738 	0 -0.0327818 	0.17203 	0 -0.0338072 	0.169242 	0 -0.034723 	0.166315 	0 -0.0356713 	0.163346 	0 -0.0367109 	0.160353 	0 -0.037767 	0.157306 	0 -0.0388617 	0.15414 	0 -0.0396958 	0.151329 	0 -0.0406214 	0.148508 	0 -0.0415627 	0.14564 	0 -0.0425196 	0.142724 	0 -0.0431533 	0.140792 	0 -0.0433956 	0.140051 	0 -0.0436389 	0.139307 	0 -0.0438832 	0.13856 	0 -0.0441322 	0.137812 	0 -0.0444011 	0.137069 	0 -0.0455302 	0.133453 	0 -0.0466845 	0.129763 	0 -0.0478653 	0.125997 	0 -0.0491182 	0.122194 	0 -0.050523 	0.11812 	0 -0.0517951 	0.113915 	0 -0.0531051 	0.109612 	0 -0.0545316 	0.105299 	0 -0.0560012 	0.100876 	0 -0.0576985 	0.0957895 	0 -0.0579113 	0.0950831 	0 -0.0581263 	0.0943757 	0 -0.0583502 	0.0936788 	0 -0.0585751 	0.0929791 	0 -0.0587833 	0.0923325 	0 -0.0601717 	0.0881196 	0 -0.0616032 	0.0838143 	0 -0.0630795 	0.0794144 	0 -0.0646563 	0.0750361 	0 -0.0667162 	0.0693752 	0 -0.0675029 	0.0670404 	0 -0.0683029 	0.0646836 	0 -0.0691242 	0.0623397 	0 -0.0699651 	0.0600032 	0 -0.0706337 	0.0581583 	0 -0.0723028 	0.0537022 	0 -0.0740158 	0.0491946 	0 -0.0757893 	0.0447494 	0 -0.0776067 	0.0403109 	0 -0.0807931 	0.0326316 	0 -0.0808789 	0.0324306 	0 -0.0809653 	0.0322336 	0 -0.081052 	0.0320398 	0 -0.0811388 	0.031846 	0 -0.0812311 	0.03164 	0 -0.0829302 	0.0276535 	0 -0.0846501 	0.0236918 	0 -0.0863865 	0.019764 	0 -0.0881308 	0.0159178 	0 -0.0896188 	0.0127578 	0 -0.09124 	0.00930594 	0 -0.0928623 	0.00590471 	0 -0.0944832 	0.00255714 	0 -0.0960858 	-0.000643624 	0 -0.0976258 	-0.00365104 	0 -0.0990907 	-0.00662186 	0 -0.100549 	-0.00954301 	0 -0.102 	-0.0124146 	0 -0.103432 	-0.0151886 	0 -0.104873 	-0.0179058 	0 -0.106185 	-0.0205547 	0 -0.10749 	-0.0231611 	0 -0.108787 	-0.025726 	0 -0.110075 	-0.0282503 	0 -0.111405 	-0.030821 	0 -0.111523 	-0.0310666 	0 -0.111641 	-0.0313117 	0 -0.111759 	-0.0315565 	0 -0.111877 	-0.031801 	0 -0.111987 	-0.0320299 	0 -0.112964 	-0.0342148 	0 -0.113931 	-0.0363729 	0 -0.114888 	-0.0385046 	0 -0.115837 	-0.0406105 	0 -0.116821 	-0.0427888 	0 -0.117745 	-0.0451453 	0 -0.118659 	-0.0474694 	0 -0.119543 	-0.0496853 	0 -0.12041 	-0.0518399 	0 -0.121317 	-0.0540896 	0 -0.121824 	-0.0556071 	0 -0.122328 	-0.0571117 	0 -0.1