# vtk DataFile Version 2.0
track0
ASCII
DATASET POLYDATA
POINTS 18272 float
1.11022e-18 0.5 1.11022e-18
0.391304 0.5 1.11022e-18
0.391043 0.49947 1.11022e-18
0.390786 0.498938 1.11022e-18
0.390533 0.498404 1.11022e-18
0.390282 0.497869 1.11022e-18
0.39 0.497254 1.11022e-18
0.389347 0.495803 1.11022e-18
0.38872 0.494341 1.11022e-18
0.388118 0.492868 1.11022e-18
0.387541 0.491386 1.11022e-18
0.387028 0.49 1.11022e-18
0.386322 0.488 1.11022e-18
0.385657 0.485986 1.11022e-18
0.38503 0.48396 1.11022e-18
0.384443 0.481922 1.11022e-18
0.38393 0.48 1.11022e-18
0.383434 0.478 1.11022e-18
0.382972 0.475992 1.11022e-18
0.382543 0.473977 1.11022e-18
0.382147 0.471955 1.11022e-18
0.381796 0.47 1.11022e-18
0.381471 0.468 1.11022e-18
0.381175 0.465995 1.11022e-18
0.380908 0.463987 1.11022e-18
0.380671 0.461974 1.11022e-18
0.380467 0.46 1.11022e-18
0.380374 0.458948 1.11022e-18
0.380288 0.457896 1.11022e-18
0.38021 0.456843 1.11022e-18
0.380139 0.45579 1.11022e-18
0.38 0.453474 1.11022e-18
0.379969 0.452779 1.11022e-18
0.379942 0.452084 1.11022e-18
0.379918 0.451389 1.11022e-18
0.379897 0.450694 1.11022e-18
0.379879 0.45 1.11022e-18
0.379838 0.448 1.11022e-18
0.379823 0.446 1.11022e-18
0.379835 0.443999 1.11022e-18
0.379873 0.441999 1.11022e-18
0.379938 0.44 1.11022e-18
0.37995 0.439729 1.11022e-18
0.379963 0.439458 1.11022e-18
0.379977 0.439187 1.11022e-18
0.37999 0.438916 1.11022e-18
0.38 0.438737 1.11022e-18
0.380095 0.43699 1.11022e-18
0.380211 0.435243 1.11022e-18
0.380347 0.433499 1.11022e-18
0.380505 0.431756 1.11022e-18
0.380684 0.43 1.11022e-18
0.380915 0.428 1.11022e-18
0.381174 0.426003 1.11022e-18
0.381462 0.424011 1.11022e-18
0.381779 0.422023 1.11022e-18
0.382132 0.42 1.11022e-18
0.382516 0.418 1.11022e-18
0.382931 0.416006 1.11022e-18
0.383379 0.41402 1.11022e-18
0.38386 0.412041 1.11022e-18
0.384394 0.41 1.11022e-18
0.384959 0.408 1.11022e-18
0.385561 0.406011 1.11022e-18
0.386202 0.404034 1.11022e-18
0.386883 0.402071 1.11022e-18
0.387652 0.4 1.11022e-18
0.388121 0.398821 1.11022e-18
0.388607 0.397648 1.11022e-18
0.38911 0.396483 1.11022e-18
0.38963 0.395325 1.11022e-18
0.39 0.394533 1.11022e-18
0.390436 0.393627 1.11022e-18
0.390882 0.392725 1.11022e-18
0.39134 0.391829 1.11022e-18
0.391809 0.390939 1.11022e-18
0.392319 0.39 1.11022e-18
0.393442 0.388 1.11022e-18
0.394625 0.386035 1.11022e-18
0.395871 0.38411 1.11022e-18
0.39718 0.382227 1.11022e-18
0.398848 0.38 1.11022e-18
0.399079 0.379719 1.11022e-18
0.399311 0.37944 1.11022e-18
0.399544 0.379162 1.11022e-18
0.39978 0.378886 1.11022e-18
0.4 0.37863 1.11022e-18
0.401506 0.376904 1.11022e-18
0.403075 0.375236 1.11022e-18
0.404708 0.37363 1.11022e-18
0.406404 0.37209 1.11022e-18
0.408904 0.37 1.11022e-18
0.409123 0.369838 1.11022e-18
0.409343 0.369677 1.11022e-18
0.409564 0.369517 1.11022e-18
0.409786 0.369359 1.11022e-18
0.41 0.369207 1.11022e-18
0.412 0.367806 1.11022e-18
0.41406 0.366495 1.11022e-18
0.416175 0.365276 1.11022e-18
0.418343 0.364152 1.11022e-18
0.42 0.363385 1.11022e-18
0.421598 0.362708 1.11022e-18
0.423215 0.362078 1.11022e-18
0.42485 0.361497 1.11022e-18
0.4265 0.360962 1.11022e-18
0.429792 0.36 1.11022e-18
0.429834 0.35999 1.11022e-18
0.429875 0.359981 1.11022e-18
0.429917 0.359971 1.11022e-18
0.429958 0.359961 1.11022e-18
0.43 0.359952 1.11022e-18
0.432 0.359493 1.11022e-18
0.434013 0.359096 1.11022e-18
0.436038 0.358761 1.11022e-18
0.438071 0.358486 1.11022e-18
0.44 0.358282 1.11022e-18
0.442 0.358123 1.11022e-18
0.444003 0.358017 1.11022e-18
0.446009 0.357963 1.11022e-18
0.448015 0.357958 1.11022e-18
0.45 0.358002 1.11022e-18
0.452 0.358093 1.11022e-18
0.453997 0.358229 1.11022e-18
0.455991 0.35841 1.11022e-18
0.457981 0.358634 1.11022e-18
0.46 0.358906 1.11022e-18
0.461402 0.359125 1.11022e-18
0.462801 0.359364 1.11022e-18
0.464197 0.359623 1.11022e-18
0.465588 0.359902 1.11022e-18
0.466043 0.36 1.11022e-18
0.466834 0.360174 1.11022e-18
0.467624 0.360355 1.11022e-18
0.468413 0.360541 1.11022e-18
0.4692 0.360734 1.11022e-18
0.47 0.360937 1.11022e-18
0.472 0.361462 1.11022e-18
0.473989 0.362027 1.11022e-18
0.475966 0.362632 1.11022e-18
0.477931 0.363275 1.11022e-18
0.48 0.363996 1.11022e-18
0.482 0.36474 1.11022e-18
0.483984 0.365524 1.11022e-18
0.485952 0.366349 1.11022e-18
0.487903 0.367213 1.11022e-18
0.49 0.368191 1.11022e-18
0.490734 0.368553 1.11022e-18
0.491466 0.36892 1.11022e-18
0.492195 0.369294 1.11022e-18
0.492921 0.369672 1.11022e-18
0.493537 0.37 1.11022e-18
0.494829 0.370698 1.11022e-18
0.496112 0.371415 1.11022e-18
0.497384 0.37215 1.11022e-18
0.498646 0.372903 1.11022e-18
0.5 0.373736 1.11022e-18
0.501966 0.374989 1.11022e-18
0.503903 0.376287 1.11022e-18
0.505809 0.37763 1.11022e-18
0.507683 0.379016 1.11022e-18
0.508952 0.38 1.11022e-18
0.509161 0.380168 1.11022e-18
0.509371 0.380337 1.11022e-18
0.509579 0.380506 1.11022e-18
0.509788 0.380676 1.11022e-18
0.51 0.38085 1.11022e-18
0.512 0.382499 1.11022e-18
0.513955 0.3842 1.11022e-18
0.515864 0.385954 1.11022e-18
0.517725 0.387758 1.11022e-18
0.519918 0.39 1.11022e-18
0.519934 0.390018 1.11022e-18
0.519951 0.390036 1.11022e-18
0.519967 0.390054 1.11022e-18
0.519984 0.390072 1.11022e-18
0.52 0.39009 1.11022e-18
0.521812 0.392072 1.11022e-18
0.523568 0.394104 1.11022e-18
0.525266 0.396185 1.11022e-18
0.526904 0.398313 1.11022e-18
0.528129 0.4 1.11022e-18
0.528503 0.40054 1.11022e-18
0.528874 0.401082 1.11022e-18
0.529241 0.401626 1.11022e-18
0.529604 0.402174 1.11022e-18
0.53 0.40278 1.11022e-18
0.530929 0.404224 1.11022e-18
0.531832 0.405684 1.11022e-18
0.532709 0.40716 1.11022e-18
0.53356 0.408652 1.11022e-18
0.534298 0.41 1.11022e-18
0.535351 0.412 1.11022e-18
0.536359 0.414023 1.11022e-18
0.537321 0.416069 1.11022e-18
0.538237 0.418136 1.11022e-18
0.539013 0.42 1.11022e-18
0.53921 0.420503 1.11022e-18
0.539405 0.421007 1.11022e-18
0.539597 0.421512 1.11022e-18
0.539787 0.422018 1.11022e-18
0.54 0.422597 1.11022e-18
0.540535 0.424078 1.11022e-18
0.541048 0.425566 1.11022e-18
0.541538 0.427062 1.11022e-18
0.542005 0.428566 1.11022e-18
0.542427 0.43 1.11022e-18
0.542984 0.432 1.11022e-18
0.543502 0.43401 1.11022e-18
0.543981 0.43603 1.11022e-18
0.54442 0.43806 1.11022e-18
0.544799 0.44 1.11022e-18
0.54515 0.442 1.11022e-18
0.545464 0.444006 1.11022e-18
0.545739 0.446018 1.11022e-18
0.545976 0.448035 1.11022e-18
0.546167 0.45 1.11022e-18
0.546323 0.452 1.11022e-18
0.54644 0.454003 1.11022e-18
0.546519 0.456007 1.11022e-18
0.546558 0.458013 1.11022e-18
0.546557 0.46 1.11022e-18
0.546516 0.462 1.11022e-18
0.546434 0.463999 1.11022e-18
0.546312 0.465995 1.11022e-18
0.546149 0.467989 1.11022e-18
0.545941 0.47 1.11022e-18
0.545689 0.472 1.11022e-18
0.545395 0.473994 1.11022e-18
0.545056 0.475981 1.11022e-18
0.544673 0.47796 1.11022e-18
0.544229 0.48 1.11022e-18
0.543741 0.482 1.11022e-18
0.543206 0.483988 1.11022e-18
0.542621 0.485962 1.11022e-18
0.541987 0.48792 1.11022e-18
0.541253 0.49 1.11022e-18
0.541003 0.490652 1.11022e-18
0.540746 0.491301 1.11022e-18
0.540484 0.491949 1.11022e-18
0.540216 0.492593 1.11022e-18
0.54 0.493099 1.11022e-18
0.539399 0.49448 1.11022e-18
0.538772 0.495848 1.11022e-18
0.538117 0.497203 1.11022e-18
0.537436 0.498546 1.11022e-18
0.536661 0.5 1.11022e-18
0.535538 0.502 1.11022e-18
0.534353 0.503964 1.11022e-18
0.533107 0.505891 1.11022e-18
0.531801 0.507777 1.11022e-18
0.530156 0.51 1.11022e-18
0.530125 0.510039 1.11022e-18
0.530094 0.510078 1.11022e-18
0.530062 0.510117 1.11022e-18
0.530031 0.510156 1.11022e-18
0.53 0.510195 1.11022e-18
0.528419 0.512156 1.11022e-18
0.526773 0.514062 1.11022e-18
0.525063 0.515912 1.11022e-18
0.523292 0.517703 1.11022e-18
0.520866 0.52 1.11022e-18
0.520693 0.52015 1.11022e-18
0.520519 0.5203 1.11022e-18
0.520345 0.52045 1.11022e-18
0.520171 0.520599 1.11022e-18
0.52 0.520743 1.11022e-18
0.518 0.52243 1.11022e-18
0.515946 0.524051 1.11022e-18
0.513841 0.525604 1.11022e-18
0.511688 0.527091 1.11022e-18
0.51 0.528184 1.11022e-18
0.50941 0.528547 1.11022e-18
0.508817 0.528906 1.11022e-18
0.508221 0.529259 1.11022e-18
0.507622 0.529609 1.11022e-18
0.50694 0.53 1.11022e-18
0.505552 0.53078 1.11022e-18
0.504151 0.531537 1.11022e-18
0.502737 0.532269 1.11022e-18
0.50131 0.532976 1.11022e-18
0.5 0.5336 1.11022e-18
0.498 0.534519 1.11022e-18
0.49598 0.535391 1.11022e-18
0.49394 0.536217 1.11022e-18
0.491883 0.537 1.11022e-18
0.49 0.537674 1.11022e-18
0.48862 0.538139 1.11022e-18
0.487233 0.538584 1.11022e-18
0.48584 0.539011 1.11022e-18
0.484442 0.539418 1.11022e-18
0.482343 0.54 1.11022e-18
0.481875 0.54012 1.11022e-18
0.481406 0.540238 1.11022e-18
0.480936 0.540354 1.11022e-18
0.480466 0.540468 1.11022e-18
0.48 0.540579 1.11022e-18
0.478 0.541046 1.11022e-18
0.475991 0.541475 1.11022e-18
0.473975 0.541866 1.11022e-18
0.471952 0.542219 1.11022e-18
0.47 0.542522 1.11022e-18
0.468 0.5428 1.11022e-18
0.465995 0.543039 1.11022e-18
0.463986 0.543239 1.11022e-18
0.461973 0.543401 1.11022e-18
0.46 0.543524 1.11022e-18
0.458 0.543614 1.11022e-18
0.455999 0.543664 1.11022e-18
0.453997 0.543673 1.11022e-18
0.451995 0.543641 1.11022e-18
0.45 0.543572 1.11022e-18
0.448 0.543464 1.11022e-18
0.446003 0.543312 1.11022e-18
0.44401 0.543116 1.11022e-18
0.442021 0.542876 1.11022e-18
0.44 0.542587 1.11022e-18
0.438 0.542257 1.11022e-18
0.436009 0.541878 1.11022e-18
0.434028 0.541449 1.11022e-18
0.432058 0.540971 1.11022e-18
0.43 0.540416 1.11022e-18
0.429721 0.540333 1.11022e-18
0.429443 0.540248 1.11022e-18
0.429164 0.540163 1.11022e-18
0.428887 0.540077 1.11022e-18
0.428644 0.54 1.11022e-18
0.426915 0.539448 1.11022e-18
0.425201 0.538853 1.11022e-18
0.423502 0.538215 1.11022e-18
0.421819 0.537534 1.11022e-18
0.42 0.536743 1.11022e-18
0.418 0.535806 1.11022e-18
0.416033 0.534802 1.11022e-18
0.414101 0.533731 1.11022e-18
0.412206 0.532596 1.11022e-18
0.41 0.531171 1.11022e-18
0.409667 0.530937 1.11022e-18
0.409336 0.530701 1.11022e-18
0.409006 0.530462 1.11022e-18
0.408677 0.530221 1.11022e-18
0.408379 0.53 1.11022e-18
0.406704 0.528739 1.11022e-18
0.405071 0.527424 1.11022e-18
0.403482 0.526055 1.11022e-18
[...]
POINT_DATA 18272
 FIELD attributes 1
U 3 18272 float
-1.75034e-19 	-7.822e-18 	0
0.0593318 	0.120573 	0 0.0586529 	0.121264 	0 0.0579731 	0.121947 	0 0.0572925 	0.122624 	0 0.056611 	0.123294 	0 0.0558294 	0.124054 	0 0.0540093 	0.125895 	0 0.0521834 	0.127684 	0 0.0503524 	0.12942 	0 0.0485171 	0.131104 	0 0.0468089 	0.132621 	0 0.0445338 	0.134676 	0 0.0422554 	0.136647 	0 0.0398551 	0.138451 	0 0.0374107 	0.140141 	0 0.0351122 	0.141643 	0 0.0329257 	0.143049 	0 0.0307361 	0.14438 	0 0.0285442 	0.145637 	0 0.0263311 	0.146809 	0 0.0240546 	0.147779 	0 0.0219363 	0.148614 	0 0.019815 	0.149379 	0 0.0176911 	0.150077 	0 0.0155652 	0.150706 	0 0.01344 	0.151235 	0 0.0123569 	0.151402 	0 0.011273 	0.15155 	0 0.0101883 	0.151681 	0 0.00910288 	0.151794 	0 0.00671626 	0.152002 	0 0.00600105 	0.152042 	0 0.00528548 	0.152074 	0 0.00456956 	0.152098 	0 0.00385332 	0.152114 	0 0.00313802 	0.152122 	0 0.001139 	0.151972 	0 -0.000873825 	0.151751 	0 -0.00289054 	0.151462 	0 -0.00491082 	0.151106 	0 -0.00693413 	0.150682 	0 -0.00719881 	0.150599 	0 -0.00746792 	0.150512 	0 -0.00773711 	0.150424 	0 -0.00800638 	0.150335 	0 -0.00818471 	0.150276 	0 -0.00991836 	0.149701 	0 -0.0116543 	0.149077 	0 -0.0133922 	0.148404 	0 -0.015132 	0.14768 	0 -0.0169278 	0.146894 	0 -0.018908 	0.14582 	0 -0.0208912 	0.144677 	0 -0.0228772 	0.143465 	0 -0.0248656 	0.142184 	0 -0.0270066 	0.140812 	0 -0.0290123 	0.139257 	0 -0.0310208 	0.137627 	0 -0.0330318 	0.13592 	0 -0.0351327 	0.134158 	0 -0.037344 	0.132256 	0 -0.0394063 	0.130165 	0 -0.0414705 	0.127988 	0 -0.0436374 	0.125764 	0 -0.0458271 	0.123456 	0 -0.0481552 	0.120902 	0 -0.049429 	0.119289 	0 -0.0507475 	0.117664 	0 -0.0520989 	0.116019 	0 -0.0534501 	0.114336 	0 -0.0543803 	0.113151 	0 -0.0554191 	0.111846 	0 -0.0564564 	0.110519 	0 -0.0574922 	0.109171 	0 -0.0585638 	0.107827 	0 -0.0597233 	0.10639 	0 -0.0621112 	0.103101 	0 -0.0644886 	0.099696 	0 -0.0669328 	0.0962307 	0 -0.0694253 	0.0926925 	0 -0.0724251 	0.0882559 	0 -0.0727983 	0.0876313 	0 -0.073171 	0.0870039 	0 -0.0735616 	0.0863863 	0 -0.0739578 	0.0857701 	0 -0.0743251 	0.0851952 	0 -0.0766962 	0.0815162 	0 -0.0790344 	0.0777404 	0 -0.0813868 	0.0739051 	0 -0.0838005 	0.0700478 	0 -0.0871665 	0.0644365 	0 -0.0874308 	0.0639401 	0 -0.0876944 	0.0634427 	0 -0.0879595 	0.0629459 	0 -0.0882409 	0.0624588 	0 -0.0885111 	0.0619888 	0 -0.0908561 	0.0578553 	0 -0.0931312 	0.05366 	0 -0.0953768 	0.0494381 	0 -0.0976636 	0.0452432 	0 -0.0993095 	0.0420769 	0 -0.1007 	0.0391935 	0 -0.102101 	0.036334 	0 -0.103509 	0.0334993 	0 -0.104869 	0.0306583 	0 -0.10746 	0.0250357 	0 -0.10749 	0.0249649 	0 -0.107519 	0.0248941 	0 -0.107548 	0.0248233 	0 -0.107577 	0.0247526 	0 -0.107609 	0.0246835 	0 -0.108973 	0.0214765 	0 -0.110271 	0.0182782 	0 -0.111502 	0.0150913 	0 -0.112667 	0.0119185 	0 -0.113785 	0.00899477 	0 -0.114737 	0.006067 	0 -0.115628 	0.0031564 	0 -0.116457 	0.000264555 	0 -0.117228 	-0.0026049 	0 -0.118009 	-0.00535048 	0 -0.118581 	-0.00808079 	0 -0.119095 	-0.01079 	0 -0.119552 	-0.0134773 	0 -0.119953 	-0.0161415 	0 -0.120343 	-0.0187815 	0 -0.120485 	-0.0206004 	0 -0.1206 	-0.0224078 	0 -0.120688 	-0.0242035 	0 -0.120749 	-0.0259873 	0 -0.120761 	-0.026568 	0 -0.120768 	-0.0275901 	0 -0.120767 	-0.0286087 	0 -0.120757 	-0.0296236 	0 -0.120738 	-0.0306347 	0 -0.12071 	-0.0316609 	0 -0.120488 	-0.0342398 	0 -0.120227 	-0.0367488 	0 -0.11991 	-0.0392339 	0 -0.119538 	-0.0416945 	0 -0.119086 	-0.0442749 	0 -0.118453 	-0.0468211 	0 -0.117761 	-0.0493372 	0 -0.117013 	-0.0518224 	0 -0.116211 	-0.0542329 	0 -0.115283 	-0.0567891 	0 -0.114885 	-0.0577074 	0 -0.114479 	-0.058621 	0 -0.114064 	-0.0595299 	0 -0.113642 	-0.060434 	0 -0.113275 	-0.0612008 	0 -0.112481 	-0.0628502 	0 -0.11166 	-0.0644846 	0 -0.110813 	-0.0661036 	0 -0.109941 	-0.067707 	0 -0.108969 	-0.0694249 	0 -0.107393 	-0.0719795 	0 -0.105754 	-0.0744896 	0 -0.104052 	-0.0769539 	0 -0.102287 	-0.0793712 	0 -0.101031 	-0.0810021 	0 -0.100816 	-0.0812796 	0 -0.1006 	-0.0815564 	0 -0.100383 	-0.0818326 	0 -0.100166 	-0.0821081 	0 -0.0999427 	-0.082389 	0 -0.0977466 	-0.0850814 	0 -0.0954768 	-0.0877092 	0 -0.0931352 	-0.0902707 	0 -0.0907234 	-0.0927641 	0 -0.0877225 	-0.0956965 	0 -0.0876988 	-0.095719 	0 -0.087675 	-0.0957416 	0 -0.0876512 	-0.0957641 	0 -0.0876274 	-0.0957867 	0 -0.0876035 	-0.0958093 	0 -0.0849265 	-0.0983132 	0 -0.0821815 	-0.100738 	0 -0.0793707 	-0.103081 	0 -0.0764964 	-0.105342 	0 -0.074218 	-0.107031 	0 -0.0735034 	-0.107557 	0 -0.0727854 	-0.108078 	0 -0.0720641 	-0.108594 	0 -0.0713395 	-0.109105 	0 -0.0705367 	-0.109663 	0 -0.0686151 	-0.110956 	0 -0.0666722 	-0.112215 	0 -0.0647086 	-0.113437 	0 -0.062725 	-0.114624 	0 -0.0609319 	-0.115654 	0 -0.0583521 	-0.117129 	0 -0.0557427 	-0.118541 	0 -0.053105 	-0.11989 	0 -0.0504406 	-0.121175 	0 -0.0479901 	-0.122224 	0 -0.0473458 	-0.122482 	0 -0.0467 	-0.122736 	0 -0.0460527 	-0.122986 	0 -0.0454041 	-0.123232 	0 -0.0446613 	-0.123509 	0 -0.0427765 	-0.124175 	0 -0.0408798 	-0.124809 	0 -0.0389718 	-0.125412 	0 -0.0370528 	-0.125984 	0 -0.0352209 	-0.126496 	0 -0.0327687 	-0.127097 	0 -0.0302709 	-0.127637 	0 -0.0276967 	-0.128107 	0 -0.0251056 	-0.128521 	0 -0.0226228 	-0.128861 	0 -0.0201598 	-0.129045 	0 -0.0176842 	-0.129176 	0 -0.0151813 	-0.129256 	0 -0.0125829 	-0.129295 	0 -0.0100438 	-0.129279 	0 -0.00755397 	-0.129057 	0 -0.00505398 	-0.128783 	0 -0.00254463 	-0.128455 	0 5.45394e-05 	-0.128116 	0 0.0026678 	-0.12774 	0 0.00519569 	-0.127118 	0 0.00773148 	-0.126443 	0 0.0102743 	-0.125713 	0 0.0129283 	-0.125015 	0 0.015636 	-0.124269 	0 0.0182129 	-0.123244 	0 0.020795 	-0.122164 	0 0.0234364 	-0.121088 	0 0.0261664 	-0.120044 	0 0.0289977 	-0.118906 	0 0.0316416 	-0.117467 	0 0.0343367 	-0.116033 	0 0.0371445 	-0.114676 	0 0.0399531 	-0.113267 	0 0.0429606 	-0.1117 	0 0.0438535 	-0.111089 	0 0.0447836 	-0.110521 	0 0.0457374 	-0.109978 	0 0.0466909 	-0.10943 	0 0.0474418 	-0.108993 	0 0.0494072 	-0.107718 	0 0.0513663 	-0.106416 	0 0.0533183 	-0.105086 	0 0.0553265 	-0.103819 	0 0.0575744 	-0.102484 	0 0.0604994 	-0.100293 	0 0.0634043 	-0.0980507 	0 0.066462 	-0.0960068 	0 0.0695194 	-0.093951 	0 0.0731718 	-0.0914189 	0 0.0732323 	-0.0913658 	0 0.0732928 	-0.0913126 	0 0.073357 	-0.0912648 	0 0.0734224 	-0.0912185 	0 0.0734871 	-0.0911726 	0 0.0765222 	-0.0886132 	0 0.079513 	-0.0860074 	0 0.0825068 	-0.0834338 	0 0.0856122 	-0.0810618 	0 0.0896618 	-0.0778667 	0 0.0899116 	-0.0776201 	0 0.090161 	-0.0773732 	0 0.0904168 	-0.0771365 	0 0.0906864 	-0.0769212 	0 0.0909489 	-0.076711 	0 0.0937058 	-0.0739391 	0 0.0963994 	-0.0711378 	0 0.0991252 	-0.0684684 	0 0.101889 	-0.0659446 	0 0.103962 	-0.063989 	0 0.104581 	-0.063223 	0 0.1052 	-0.0624626 	0 0.105852 	-0.0617709 	0 0.106499 	-0.0610775 	0 0.107227 	-0.0602886 	0 0.108565 	-0.0585837 	0 0.109878 	-0.0568742 	0 0.111167 	-0.0551605 	0 0.112514 	-0.0535983 	0 0.11374 	-0.0522106 	0 0.115301 	-0.0497757 	0 0.116811 	-0.0473312 	0 0.118354 	-0.0450769 	0 0.119869 	-0.0428651 	0 0.1212 	-0.0408477 	0 0.12198 	-0.039154 	0 0.122768 	-0.0375684 	0 0.123544 	-0.0360182 	0 0.124298 	-0.034464 	0 0.12539 	-0.0321354 	0 0.1256 	-0.0316026 	0 0.125808 	-0.0310697 	0 0.126013 	-0.0305366 	0 0.126217 	-0.0300038 	0 0.126433 	-0.0295322 	0 0.127114 	-0.027157 	0 0.127752 	-0.0247767 	0 0.128348 	-0.0223921 	0 0.128904 	-0.0200294 	0 0.129426 	-0.0179447 	0 0.129717 	-0.0154594 	0 0.129965 	-0.012969 	0 0.130168 	-0.0104745 	0 0.130324 	-0.00811319 	0 0.130433 	-0.00586551 	0 0.130331 	-0.0032327 	0 0.130181 	-0.000595328 	0 0.129985 	0.00204556 	0 0.129712 	0.00452749 	0 0.12939 	0.00697549 	0 0.128878 	0.00978739 	0 0.128316 	0.0126026 	0 0.127706 	0.0154197 	0 0.127015 	0.0181497 	0 0.126232 	0.0208436 	0 0.125286 	0.0238689 	0 0.124288 	0.0268946 	0 0.123238 	0.0299187 	0 0.122138 	0.0329394 	0 0.120906 	0.0360643 	0 0.120708 	0.0365228 	0 0.12051 	0.0369811 	0 0.12031 	0.0374394 	0 0.12011 	0.0378975 	0 0.119933 	0.0382982 	0 0.11863 	0.0411737 	0 0.117284 	0.044045 	0 0.115896 	0.0469102 	0 0.114467 	0.0497675 	0 0.11286 	0.0528806 	0 0.110966 	0.0566514 	0 0.10901 	0.0603943 	0 0.106996 	0.064105 	0 0.10489 	0.067736 	0 0.102294 	0.0719706 	0 0.101875 	0.0726705 	0 0.101455 	0.0733688 	0 0.101034 	0.0740656 	0 0.100611 	0.0747608 	0 0.100225 	0.0753932 	0 0.0980174 	0.0789712 	0 0.0957755 	0.0825042 	0 0.0935016 	0.0859889 	0 0.0911986 	0.0894223 	0 0.0881837 	0.0937959 	0 0.0873376 	0.0950484 	0 0.0864888 	0.0962922 	0 0.0856374 	0.0975273 	0 0.0847835 	0.0987537 	0 0.0840132 	0.0998489 	0 0.0813834 	0.103614 	0 0.0787357 	0.107291 	0 0.0760732 	0.110878 	0 0.0733993 	0.114375 	0 0.0699075 	0.118746 	0 0.0697984 	0.118874 	0 0.0696894 	0.119002 	0 0.0695803 	0.11913 	0 0.0694712 	0.119258 	0 0.0693599 	0.119388 	0 0.0668348 	0.12249 	0 0.0642986 	0.125495 	0 0.0617531 	0.128404 	0 0.0592004 	0.131219 	0 0.0569842 	0.133577 	0 0.0546271 	0.136123 	0 0.052269 	0.138584 	0 0.049911 	0.140964 	0 0.0475532 	0.143261 	0 0.0452335 	0.145181 	0 0.0443119 	0.145947 	0 0.0433899 	0.146702 	0 0.0424678 	0.147444 	0 0.0415454 	0.148173 	0 0.0403873 	0.149074 	0 0.0391293 	0.150063 	0 0.037871 	0.151029 	0 0.0366125 	0.151971 	0 0.0353538 	0.15289 	0 0.0341252 	0.153764 	0 0.0321278 	0.155221 	0 0.0299615 	0.156485 	0 0.0277927 	0.157678 	0 0.0256221 	0.158803 	0 0.0235126 	0.159829 	0 0.0215849 	0.160748 	0 0.0196469 	0.161601 	0 0.0175354 	0.162272 	0 0.0154214 	0.162878 	0 0.0133396 	0.16341 	0 0.011454 	0.16382 	0 0.00956734 	0.164173 	0 0.00758552 	0.16441 	0 0.00552248 	0.164535 	0 0.00347224 	0.164598 	0 0.00161932 	0.164531 	0 -0.000235428 	0.164408 	0 -0.00215599 	0.164193 	0 -0.00417475 	0.163867 	0 -0.00619576 	0.163479 	0 -0.00803312 	0.162953 	0 -0.0098729 	0.162369 	0 -0.011797 	0.161692 	0 -0.0137904 	0.160926 	0 -0.0158004 	0.16009 	0 -0.0176453 	0.159103 	0 -0.0194933 	0.158055 	0 -0.021479 	0.156908 	0 -0.0234741 	0.155692 	0 -0.0255028 	0.154388 	0 -0.027378 	0.152922 	0 -0.0293386 	0.151379 	0 -0.0313575 	0.14976 	0 -0.0333806 	0.148066 	0 -0.035462 	0.146248 	0 -0.03651 	0.145169 	0 -0.0376311 	0.144074 	0 -0.0387538 	0.142954 	0 -0.0398778 	0.141809 	0 -0.0406441 	0.141012 	0 -0.0416667 	0.139963 	0 -0.0426897 	0.138895 	0 -0.0437131 	0.137806 	0 -0.0447456 	0.1367 	0 -0.0458596 	0.135566 	0 -0.0479752 	0.133117 	0 -0.0500927 	0.130581 	0 -0.0522113 	0.127954 	0 -0.0544415 	0.125293 	0 -0.056865 	0.122331 	0 -0.059096 	0.119215 	0 -0.061385 	0.116029 	0 -0.0637547 	0.112784 	0 -0.066121 	0.109426 	0 -0.0674095 	0.107531 	0 -0.067695 	0.107113 	0 -0.0679804 	0.106694 	0 -0.0682657 	0.106272 	0 -0.0685668 	0.105861 	0 -0.0688761 	0.105439 	0 -0.0713891 	0.101699 	0 -0.0738876 	0.0978403 	0 -0.0764033 	0.0938875 	0 -0.0790245 	0.0899042 	0 -0.0823302 	0.0846799 	0 -0.0828089 	0.0838257 	0 -0.0832864 	0.0829674 	0 -0.0837808 	0.0821171 	0 -0.0842897 	0.0812733 	0 -0.084757 	0.0804924 	0 -0.0872652 	0.0763055 	0 -0.0897289 	0.072028 	0 -0.0922404 	0.067727 	0 -0.0947721 	0.0633947 	0 -0.0978666 	0.0578747 	0 -0.0980247 	0.0575729 	0 -0.0981842 	0.0572719 	0 -0.0983536 	0.0569768 	0 -0.0985226 	0.0566816 	0 -0.0987 	0.0563707 	0 -0.100698 	0.0526634 	0 -0.102641 	0.0489276 	0 -0.104526 	0.0451685 	0 -0.106464 	0.0414598 	0 -0.108032 	0.0384131 	0 -0.109715 	0.0348869 	0 -0.111333 	0.0313577 	0 -0.113006 	0.027908 	0 -0.11462 	0.0244675 	0 -0.116014 	0.0213688 	0 -0.117273 	0.0182033 	0 -0.118562 	0.0151182 	0 -0.119804 	0.0120572 	0 -0.120984 	0.0090101 	0 -0.122059 	0.0060956 	0 -0.122968 	0.00321803 	0 -0.123876 	0.000411663 	0 -0.124728 	-0.00237803 	0 -0.125523 	-0.00514997 	0 -0.126261 	-0.00789322 	0 -0.126806 	-0.0105897 	0 -0.127343 	-0.0132075 	0 -0.127828 	-0.0158067 	0 -0.128261 	-0.0183864 	0 -0.12865 	-0.0209945 	0 -0.128834 	-0.0235837 	0 -0.128988 	-0.0261062 	0 -0.129109 	-0.0285695 	0 -0.12918 	-0.0310126 	0 -0.129203 	-0.0335227 	0 -0.129028 	-0.0360187 	0 -0.128802 	-0.038491 	0 -0.128526 	-0.040939 	0 -0.128212 	-0.0432856 	0 -0.127832 	-0.0457235 	0 -0.127427 	-0.0474545 	0 -0.126997 	-0.0491727 	0 -0.126541 	-0.0508777 	0 -0.12606 	-0.0525694 	0 -0.125713 	-0.0537205 	0 -0.125451 	-0.0545443 	0 -0.125183 	-0.055365 	0 -0.124909 	-0.0561827 	0 -0.124629 	-0.0569974 	0 -0.124336 	-0.0578314 	0 -0.123326 	-0.0603406 	0 -0.12225 	-0.0627714 	0 -0.121115 	-0.0651423 	0 -0.119928 	-0.0674858 	0 -0.118566 	-0.0700321 	0 -0.117718 	-0.071445 	0 -0.116851 	-0.0728464 	0 -0.115965 	-0.0742362 	0 -0.115062 	-0.0756141 	0 -0.114311 	-0.0767264 	0 -0.113527 	-0.0778905 	0 -0.11273 	-0.0790464 	0 -0.111921 	-0.080194 	0 -0.111099 	-0.081333 	0 -0.110204 	-0.0825448 	0 -0.108372 	-0.0848939 	0 -0.106488 	-0.0872033 	0 -0.104552 	-0.089472 	0 -0.102567 	-0.0916987 	0 -0.101048 	-0.093329 	0 -0.100634 	-0.0937764 	0 -0.100218 	-0.094222 	0 -0.0998001 	-0.0946659 	0 -0.0993803 	-0.095108 	0 -0.0989409 	-0.0955668 	0 -0.0966192 	-0.0979204 	0 -0.0942441 	-0.100221 	0 -0.0918171 	-0.102467 	0 -0.0893395 	-0.104658 	0 -0.0873666 	-0.106324 	0 -0.0866994 	-0.106894 	0 -0.086029 	-0.10746 	0 -0.0853553 	-0.108022 	0 -0.0846785 	-0.10858 	0 -0.0839436 	-0.109178 	0 -0.0819193 	-0.110768 	0 -0.0798693 	-0.112323 	0 -0.0777944 	-0.113842 	0 -0.0756953 	-0.115324 	0 -0.073851 	-0.11658 	0 -0.0719124 	-0.117925 	0 -0.0699557 	-0.119238 	0 -0.0679813 	-0.120519 	0 -0.0659899 	-0.121767 	0 -0.0633664 	-0.123355 	0 -0.0628529 	-0.123641 	0 -0.0623385 	-0.123924 	0 -0.0618232 	-0.124205 	0 -0.0613069 	-0.124484 	0 -0.0608007 	-0.124756 	0 -0.0583059 	-0.126143 	0 -0.0557094 	-0.127407 	0 -0.0530886 	-0.128614 	0 -0.0504447 	-0.129765 	0 -0.048021 	-0.130761 	0 -0.04556 	-0.131727 	0 -0.0430824 	-0.132643 	0 -0.0405891 	-0.133508 	0 -0.038081 	-0.134322 	0 -0.035625 	-0.134981 	0 -0.0343461 	-0.135273 	0 -0.0330633 	-0.135552 	0 -0.0317769 	-0.135817 	0 -0.0304869 	-0.136068 	0 -0.0286536 	-0.136405 	0 -0.0275977 	-0.136566 	0 -0.0265393 	-0.136718 	0 -0.0254786 	-0.136861 	0 -0.0244155 	-0.136996 	0 -0.0233663 	-0.13712 	0 -0.020993 	-0.137267 	0 -0.0185383 	-0.137358 	0 -0.0160704 	-0.137403 	0 -0.0135901 	-0.137401 	0 -0.0111598 	-0.137354 	0 -0.00882795 	-0.137103 	0 -0.00636894 	-0.136827 	0 -0.00387061 	-0.13651 	0 -0.00136073 	-0.136146 	0 0.00113594 	-0.135739 	0 0.00350673 	-0.135083 	0 0.00599384 	-0.134431 	0 0.00854022 	-0.133755 	0 0.0110973 	-0.133033 	0 0.0136813 	-0.132258 	0 0.0161047 	-0.131195 	0 0.0187054 	-0.130209 	0 0.0213166 	-0.129176 	0 0.0239372 	-0.128096 	0 0.0266378 	-0.126939 	0 0.0275419 	-0.126418 	0 0.0285056 	-0.125945 	0 0.0294707 	-0.125467 	0 0.0304369 	-0.124983 	0 0.0310879 	-0.124653 	0 0.0328502 	-0.123686 	0 0.0346132 	-0.122696 	0 0.0363766 	-0.121684 	0 0.0381452 	-0.120655 	0 0.0400966 	-0.119686 	0 0.0427948 	-0.117928 	0 0.0454928 	-0.116122 	0 0.0481888 	-0.114266 	0 0.0510673 	-0.112599 	0 0.0542257 	-0.110719 	0 0.0566265 	-0.108853 	0 0.0590904 	-0.107044 	0 0.0616688 	-0.105364 	0 0.064241 	-0.103654 	0 0.0657475 	-0.102633 	0 0.0664484 	-0.102077 	0 0.067148 	-0.101519 	0 0.0678461 	-0.100958 	0 0.0685896 	-0.100461 	0 0.0693698 	-0.0999396 	0 0.0723704 	-0.0974369 	0 0.0753461 	-0.0948936 	0 0.0784153 	-0.092486 	0 0.0815679 	-0.0902067 	0 0.0855097 	-0.0872862 	0 0.0856596 	-0.0871443 	0 0.0858093 	-0.0870025 	0 0.0859661 	-0.086871 	0 0.0861294 	-0.0867488 	0 0.0862898 	-0.0866287 	0 0.089331 	-0.0837922 	0 0.0923228 	-0.0809262 	0 0.0953846 	-0.0782187 	0 0.0985168 	-0.0756774 	0 0.10144 	-0.0732429 	0 0.101695 	-0.0729662 	0 0.101948 	-0.0726894 	0 0.102219 	-0.0724411 	0 0.102492 	-0.0721958 	0 0.102775 	-0.07194 	0 0.104878 	-0.0696456 	0 0.106944 	-0.0673434 	0 0.108979 	-0.0650481 	0 0.111151 	-0.0630347 	0 0.112963 	-0.0613195 	0 0.114466 	-0.0593682 	0 0.115968 	-0.0574656 	0 0.117531 	-0.0557313 	0 0.119065 	-0.0539921 	0 0.12116 	-0.0515629 	0 0.121349 	-0.0512948 	0 0.121538 	-0.0510267 	0 0.121726 	-0.0507587 	0 0.121923 	-0.0505084 	0 0.122128 	-0.050279 	0 0.123519 	-0.048008 	0 0.124871 	-0.0457339 	0 0.126185 	-0.0434574 	0 0.127531 	-0.0413458 	0 0.128787 	-0.0394867 	0 0.129796 	-0.0371909 	0 0.130765 	-0.0348914 	0 0.13175 	-0.0327772 	0 0.132716 	-0.0307185 	0 0.133599 	-0.0287574 	0 0.134238 	-0.0263868 	0 0.13486 	-0.0241733 	0 0.135454 	-0.0220213 	0 0.13601 	-0.0198643 	0 0.136512 	-0.017772 	0 0.136783 	-0.0153754 	0 0.13701 	-0.0130992 	0 0.137198 	-0.0108168 	0 0.137348 	-0.00852882 	0 0.137458 	-0.00627644 	0 0.137349 	-0.00423446 	0 0.137206 	-0.00222426 	0 0.137035 	-0.000209376 	0 0.136837 	0.00180979 	0 0.136374 	0.00595621 	0 0.135826 	0.0085961 	0 0.135227 	0.0112165 	0 0.134585 	0.0138436 	0 0.133901 	0.0164766 	0 0.133164 	0.0191525 	0 0.132232 	0.0220997 	0 0.131197 	0.0249351 	0 0.130118 	0.0277763 	0 0.128996 	0.0306221 	0 0.127783 	0.0335871 	0 0.126441 	0.0368482 	0 0.12505 	0.0401067 	0 0.123525 	0.0432184 	0 0.121949 	0.0463167 	0 0.120198 	0.0496708 	0 0.118527 	0.0529388 	0 0.116817 	0.0561973 	0 0.115069 	0.0594436 	0 0.113285 	0.062675 	0 0.112431 	0.0641845 	0 0.111991 	0.0649374 	0 0.111548 	0.0656894 	0 0.111104 	0.0664402 	0 0.110658 	0.06719 	0 0.110192 	0.0679683 	0 0.107857 	0.0720814 	0 0.105448 	0.0761229 	0 0.102962 	0.0800806 	0 0.100445 	0.0840005 	0 0.0972188 	0.0889184 	0 0.0967092 	0.0897111 	0 0.0961989 	0.0905015 	0 0.0956878 	0.0912896 	0 0.0951759 	0.0920753 	0 0.0947012 	0.0928009 	0 0.0920958 	0.0967895 	0 0.0894754 	0.100714 	0 0.0868432 	0.104571 	0 0.0842027 	0.108359 	0 0.0804746 	0.113594 	0 0.0803297 	0.113799 	0 0.0801848 	0.114004 	0 0.0800398 	0.114208 	0 0.0798949 	0.114413 	0 0.0797517 	0.114614 	0 0.0770344 	0.118468 	0 0.0742582 	0.122173 	0 0.0714747 	0.125776 	0 0.0686866 	0.129275 	0 0.0664083 	0.132049 	0 0.0647022 	0.134156 	0 0.0629973 	0.136224 	0 0.0612941 	0.138251 	0 0.0595929 	0.14024 	0 0.0572572 	0.14292 	0 0.0567058 	0.143553 	0 0.0561548 	0.144181 	0 0.0556041 	0.144806 	0 0.0550536 	0.145426 	0 0.0545139 	0.146031 	0 0.0523411 	0.148518 	0 0.0500429 	0.150822 	0 0.0477457 	0.15305 	0 0.0454503 	0.155203 	0 0.0432987 	0.157155 	0 0.0412661 	0.159069 	0 0.0392373 	0.16092 	0 0.0371861 	0.162689 	0 0.0349675 	0.164257 	0 0.0328313 	0.165702 	0 0.0308607 	0.167063 	0 0.0288919 	0.168367 	0 0.0269251 	0.169614 	0 0.0249606 	0.170805 	0 0.022858 	0.171773 	0 0.0209339 	0.172626 	0 0.01901 	0.173424 	0 0.0170866 	0.174169 	0 0.0151639 	0.17486 	0 0.0132165 	0.175453 	0 0.0119897 	0.1757 	0 0.0107625 	0.175925 	0 0.00953499 	0.176127 	0 0.00830721 	0.176307 	0 0.00524783 	0.1767 	0 0.00495763 	0.176725 	0 0.00466741 	0.176748 	0 0.00437719 	0.17677 	0 0.00408694 	0.176791 	0 0.00379682 	0.176811 	0 0.00194909 	0.176751 	0 9.51721e-05 	0.176635 	0 -0.00176089 	0.176466 	0 -0.00361889 	0.176243 	0 -0.00547752 	0.175967 	0 -0.00574411 	0.175896 	0 -0.00601462 	0.175822 	0 -0.0062852 	0.175747 	0 -0.00655585 	0.17567 	0 -0.00671471 	0.175624 	0 -0.00830411 	0.175167 	0 -0.00989521 	0.174671 	0 -0.0114879 	0.174133 	0 -0.013082 	0.173556 	0 -0.0147193 	0.17292 	0 -0.0165584 	0.172003 	0 -0.0184005 	0.171029 	0 -0.0202454 	0.169999 	0 -0.0220928 	0.168911 	0 -0.0240622 	0.167725 	0 -0.0259253 	0.166371 	0 -0.0277919 	0.164955 	0 -0.0296618 	0.163477 	0 -0.0315832 	0.161931 	0 -0.0336365 	0.160279 	0 -0.0355456 	0.158455 	0 -0.0374586 	0.156563 	0 -0.0394072 	0.154603 	0 -0.0414631 	0.152579 	0 -0.0435926 	0.150407 	0 -0.0455748 	0.148055 	0 -0.0476061 	0.145633 	0 -0.0497363 	0.143152 	0 -0.0518712 	0.140582 	0 -0.0541308 	0.137772 	0 -0.0546939 	0.136968 	0 -0.055281 	0.136166 	0 -0.0558849 	0.135363 	0 -0.0564893 	0.134553 	0 -0.0570112 	0.133848 	0 -0.0586455 	0.131668 	0 -0.0602803 	0.129436 	0 -0.061915 	0.12715 	0 -0.0636032 	0.124844 	0 -0.0654768 	0.12233 	0 -0.0678191 	0.118792 	0 -0.0701593 	0.115142 	0 -0.0726334 	0.111469 	0 -0.0751214 	0.107693 	0 -0.0780435 	0.103104 	0 -0.0781825 	0.102857 	0 -0.0783214 	0.10261 	0 -0.0784688 	0.102368 	0 -0.0786177 	0.102127 	0 -0.0787626 	0.101891 	0 -0.0813027 	0.0978191 	0 -0.0838238 	0.0936374 	0 -0.0863549 	0.0893696 	0 -0.0890003 	0.08509