# vtk DataFile Version 2.0
track0
ASCII
DATASET POLYDATA
POINTS 20002 float
1.11022e-18 0.5 1.11022e-18
0.391304 0.5 1.11022e-18
0.391043 0.499299 1.11022e-18
0.390787 0.498597 1.11022e-18
0.390533 0.497893 1.11022e-18
0.390284 0.497187 1.11022e-18
0.39 0.496369 1.11022e-18
0.389566 0.495095 1.11022e-18
0.389145 0.493817 1.11022e-18
0.388735 0.492536 1.11022e-18
0.388337 0.49125 1.11022e-18
0.387962 0.49 1.11022e-18
0.38738 0.488 1.11022e-18
0.386824 0.485993 1.11022e-18
0.386293 0.483979 1.11022e-18
0.385786 0.481958 1.11022e-18
0.385319 0.48 1.11022e-18
0.384865 0.478 1.11022e-18
0.384433 0.475995 1.11022e-18
0.38402 0.473986 1.11022e-18
0.383628 0.471973 1.11022e-18
0.383262 0.47 1.11022e-18
0.382911 0.468 1.11022e-18
0.382577 0.465997 1.11022e-18
0.38226 0.463991 1.11022e-18
0.38196 0.461983 1.11022e-18
0.38168 0.46 1.11022e-18
0.381413 0.458 1.11022e-18
0.381161 0.455998 1.11022e-18
0.380923 0.453994 1.11022e-18
0.380699 0.451989 1.11022e-18
0.380491 0.45 1.11022e-18
0.380393 0.449 1.11022e-18
0.380298 0.448 1.11022e-18
0.380206 0.447 1.11022e-18
0.380117 0.445999 1.11022e-18
0.38 0.444631 1.11022e-18
0.379925 0.443705 1.11022e-18
0.379852 0.442778 1.11022e-18
0.379781 0.441852 1.11022e-18
0.379713 0.440925 1.11022e-18
0.379648 0.44 1.11022e-18
0.379512 0.438 1.11022e-18
0.379387 0.435999 1.11022e-18
0.379273 0.433998 1.11022e-18
0.379169 0.431996 1.11022e-18
0.379076 0.43 1.11022e-18
0.378992 0.428 1.11022e-18
0.378918 0.426 1.11022e-18
0.378853 0.423999 1.11022e-18
0.378798 0.421998 1.11022e-18
0.378751 0.42 1.11022e-18
0.378714 0.418 1.11022e-18
0.378684 0.416 1.11022e-18
0.378663 0.414 1.11022e-18
0.37865 0.411999 1.11022e-18
0.378645 0.41 1.11022e-18
0.378648 0.408 1.11022e-18
0.378658 0.406 1.11022e-18
0.378676 0.404 1.11022e-18
0.378701 0.402 1.11022e-18
0.378732 0.4 1.11022e-18
0.378771 0.398 1.11022e-18
0.378816 0.396 1.11022e-18
0.378868 0.394 1.11022e-18
0.378927 0.392001 1.11022e-18
0.378991 0.39 1.11022e-18
0.379062 0.388 1.11022e-18
0.379139 0.386 1.11022e-18
0.379222 0.384001 1.11022e-18
0.379311 0.382001 1.11022e-18
0.379405 0.38 1.11022e-18
0.379505 0.378 1.11022e-18
0.37961 0.376 1.11022e-18
0.37972 0.374001 1.11022e-18
0.379836 0.372002 1.11022e-18
0.379957 0.37 1.11022e-18
0.379966 0.369864 1.11022e-18
0.379974 0.369727 1.11022e-18
0.379983 0.369591 1.11022e-18
0.379992 0.369454 1.11022e-18
0.38 0.369321 1.11022e-18
0.380119 0.367457 1.11022e-18
0.380242 0.365593 1.11022e-18
0.380369 0.363729 1.11022e-18
0.380501 0.361866 1.11022e-18
0.380636 0.36 1.11022e-18
0.380786 0.358 1.11022e-18
0.38094 0.356 1.11022e-18
0.381098 0.354001 1.11022e-18
0.381261 0.352002 1.11022e-18
0.381428 0.35 1.11022e-18
0.3816 0.348 1.11022e-18
0.381775 0.346 1.11022e-18
0.381954 0.344001 1.11022e-18
0.382137 0.342002 1.11022e-18
0.382323 0.34 1.11022e-18
0.382514 0.338 1.11022e-18
0.382708 0.336 1.11022e-18
0.382905 0.334001 1.11022e-18
0.383106 0.332002 1.11022e-18
0.383311 0.33 1.11022e-18
0.383519 0.328 1.11022e-18
0.38373 0.326 1.11022e-18
0.383943 0.324001 1.11022e-18
0.38416 0.322002 1.11022e-18
0.384381 0.32 1.11022e-18
0.384604 0.318 1.11022e-18
0.384829 0.316 1.11022e-18
0.385058 0.314001 1.11022e-18
0.385289 0.312002 1.11022e-18
0.385523 0.31 1.11022e-18
0.385759 0.308 1.11022e-18
0.385997 0.306 1.11022e-18
0.386238 0.304001 1.11022e-18
0.386481 0.302002 1.11022e-18
0.386727 0.3 1.11022e-18
0.386975 0.298 1.11022e-18
0.387224 0.296 1.11022e-18
0.387476 0.294001 1.11022e-18
0.387729 0.292001 1.11022e-18
0.387985 0.29 1.11022e-18
0.388242 0.288 1.11022e-18
0.3885 0.286 1.11022e-18
0.388761 0.284001 1.11022e-18
0.389022 0.282001 1.11022e-18
0.389286 0.28 1.11022e-18
0.389429 0.278922 1.11022e-18
0.389572 0.277845 1.11022e-18
0.389715 0.276767 1.11022e-18
0.389859 0.27569 1.11022e-18
0.39 0.274637 1.11022e-18
0.390124 0.273709 1.11022e-18
0.390249 0.272782 1.11022e-18
0.390374 0.271855 1.11022e-18
0.390499 0.270928 1.11022e-18
0.390625 0.27 1.11022e-18
0.390896 0.268 1.11022e-18
0.391168 0.266 1.11022e-18
0.391442 0.264 1.11022e-18
0.391716 0.262001 1.11022e-18
0.391992 0.26 1.11022e-18
0.392268 0.258 1.11022e-18
0.392546 0.256 1.11022e-18
0.392824 0.254 1.11022e-18
0.393102 0.252 1.11022e-18
0.393381 0.25 1.11022e-18
0.393662 0.248 1.11022e-18
0.393943 0.246 1.11022e-18
0.394223 0.244 1.11022e-18
0.394504 0.242 1.11022e-18
0.394786 0.24 1.11022e-18
0.395069 0.238 1.11022e-18
0.395352 0.236 1.11022e-18
0.395634 0.234 1.11022e-18
0.395917 0.232 1.11022e-18
0.3962 0.23 1.11022e-18
0.396484 0.228 1.11022e-18
0.396767 0.226 1.11022e-18
0.39705 0.224 1.11022e-18
0.397334 0.222 1.11022e-18
0.397618 0.22 1.11022e-18
0.397902 0.218 1.11022e-18
0.398185 0.216 1.11022e-18
0.398469 0.214 1.11022e-18
0.398752 0.212 1.11022e-18
0.399036 0.21 1.11022e-18
0.399229 0.208645 1.11022e-18
0.399421 0.20729 1.11022e-18
0.399614 0.205934 1.11022e-18
0.399806 0.204579 1.11022e-18
0.4 0.203216 1.11022e-18
0.400091 0.202573 1.11022e-18
0.400183 0.20193 1.11022e-18
0.400274 0.201286 1.11022e-18
0.400366 0.200643 1.11022e-18
0.400457 0.2 1.11022e-18
0.400742 0.198 1.11022e-18
0.401028 0.196 1.11022e-18
0.401313 0.194 1.11022e-18
0.401599 0.192 1.11022e-18
0.401884 0.19 1.11022e-18
0.402172 0.188 1.11022e-18
0.40246 0.186 1.11022e-18
0.402748 0.184 1.11022e-18
0.403036 0.182 1.11022e-18
0.403326 0.18 1.11022e-18
0.403618 0.178 1.11022e-18
0.403911 0.176 1.11022e-18
0.404204 0.174 1.11022e-18
0.404499 0.172 1.11022e-18
0.404796 0.17 1.11022e-18
0.405097 0.168 1.11022e-18
0.405399 0.166 1.11022e-18
0.405702 0.164001 1.11022e-18
0.406008 0.162001 1.11022e-18
0.406319 0.16 1.11022e-18
0.406635 0.158 1.11022e-18
0.406952 0.156 1.11022e-18
0.407273 0.154001 1.11022e-18
0.4076 0.152003 1.11022e-18
0.407934 0.15 1.11022e-18
0.408273 0.148 1.11022e-18
0.408617 0.146001 1.11022e-18
0.408969 0.144003 1.11022e-18
0.409328 0.142006 1.11022e-18
0.409699 0.14 1.11022e-18
0.409759 0.139681 1.11022e-18
0.409819 0.139362 1.11022e-18
0.40988 0.139044 1.11022e-18
0.409941 0.138725 1.11022e-18
0.41 0.138419 1.11022e-18
0.410325 0.136735 1.11022e-18
0.410659 0.135053 1.11022e-18
0.411 0.133372 1.11022e-18
0.411349 0.131693 1.11022e-18
0.411709 0.13 1.11022e-18
0.412149 0.128 1.11022e-18
0.412605 0.126003 1.11022e-18
0.413076 0.124011 1.11022e-18
0.413564 0.122022 1.11022e-18
0.414083 0.12 1.11022e-18
0.414621 0.118 1.11022e-18
0.415182 0.116006 1.11022e-18
0.415768 0.11402 1.11022e-18
0.416383 0.112043 1.11022e-18
0.417055 0.11 1.11022e-18
0.417644 0.10831 1.11022e-18
0.418259 0.106629 1.11022e-18
0.418905 0.10496 1.11022e-18
0.419582 0.103304 1.11022e-18
0.42 0.102338 1.11022e-18
0.420209 0.10187 1.11022e-18
0.420422 0.101404 1.11022e-18
0.420637 0.100939 1.11022e-18
0.420854 0.100475 1.11022e-18
0.421082 0.1 1.11022e-18
0.422054 0.098 1.11022e-18
0.423088 0.0960311 1.11022e-18
0.424187 0.0940978 1.11022e-18
0.425355 0.0922053 1.11022e-18
0.426835 0.09 1.11022e-18
0.427468 0.0891492 1.11022e-18
0.428119 0.0883122 1.11022e-18
0.428789 0.0874901 1.11022e-18
0.429477 0.0866829 1.11022e-18
0.43 0.0860962 1.11022e-18
0.431125 0.0848769 1.11022e-18
0.432292 0.0836987 1.11022e-18
0.433502 0.0825646 1.11022e-18
0.434754 0.0814762 1.11022e-18
0.43658 0.08 1.11022e-18
0.437264 0.0795039 1.11022e-18
0.437958 0.0790218 1.11022e-18
0.438661 0.0785538 1.11022e-18
0.439374 0.0781002 1.11022e-18
0.44 0.0777177 1.11022e-18
0.442 0.0765379 1.11022e-18
0.444056 0.0754592 1.11022e-18
0.446164 0.0744854 1.11022e-18
0.448315 0.0736105 1.11022e-18
0.45 0.073008 1.11022e-18
0.451873 0.0724064 1.11022e-18
0.453766 0.0718724 1.11022e-18
0.455676 0.0713982 1.11022e-18
0.457598 0.0709813 1.11022e-18
0.46 0.0705348 1.11022e-18
0.46072 0.0704278 1.11022e-18
0.461441 0.0703283 1.11022e-18
0.462163 0.0702354 1.11022e-18
0.462886 0.0701491 1.11022e-18
0.464241 0.07 1.11022e-18
0.465393 0.0698932 1.11022e-18
0.466546 0.0698033 1.11022e-18
0.4677 0.0697303 1.11022e-18
0.468856 0.0696742 1.11022e-18
0.47 0.0696351 1.11022e-18
0.472 0.0695938 1.11022e-18
0.474 0.0695959 1.11022e-18
0.476 0.0696413 1.11022e-18
0.477999 0.06973 1.11022e-18
0.48 0.0698623 1.11022e-18
0.480314 0.0698898 1.11022e-18
0.480629 0.0699183 1.11022e-18
0.480943 0.0699478 1.11022e-18
0.481257 0.0699783 1.11022e-18
0.481475 0.07 1.11022e-18
0.48318 0.0701742 1.11022e-18
0.484882 0.0703775 1.11022e-18
0.48658 0.0706099 1.11022e-18
0.488274 0.0708717 1.11022e-18
0.49 0.0711693 1.11022e-18
0.492 0.0715511 1.11022e-18
0.493992 0.0719746 1.11022e-18
0.495974 0.0724378 1.11022e-18
0.497947 0.0729411 1.11022e-18
0.5 0.0735097 1.11022e-18
0.502 0.0741107 1.11022e-18
0.503986 0.0747555 1.11022e-18
0.505958 0.0754443 1.11022e-18
0.507914 0.0761765 1.11022e-18
0.51 0.0770098 1.11022e-18
0.5114 0.0776078 1.11022e-18
0.512789 0.0782289 1.11022e-18
0.514168 0.0788729 1.11022e-18
0.515536 0.07954 1.11022e-18
0.516441 0.08 1.11022e-18
0.517153 0.0803724 1.11022e-18
0.517861 0.0807512 1.11022e-18
0.518566 0.0811365 1.11022e-18
0.519267 0.0815282 1.11022e-18
0.52 0.0819463 1.11022e-18
0.522 0.0831132 1.11022e-18
0.523969 0.0843323 1.11022e-18
0.525904 0.0856032 1.11022e-18
0.527806 0.0869249 1.11022e-18
0.53 0.0885385 1.11022e-18
0.530372 0.0888308 1.11022e-18
0.530743 0.0891251 1.11022e-18
0.531113 0.0894213 1.11022e-18
0.53148 0.0897196 1.11022e-18
0.531823 0.09 1.11022e-18
0.533458 0.0913544 1.11022e-18
0.535061 0.0927472 1.11022e-18
0.536631 0.0941773 1.11022e-18
0.538166 0.095644 1.11022e-18
0.54 0.0974786 1.11022e-18
0.540476 0.0979829 1.11022e-18
0.540949 0.0984906 1.11022e-18
0.541418 0.0990017 1.11022e-18
0.541883 0.0995162 1.11022e-18
0.542315 0.1 1.11022e-18
0.543852 0.101748 1.11022e-18
0.545347 0.103531 1.11022e-18
0.546802 0.105348 1.11022e-18
0.548214 0.107198 1.11022e-18
0.55 0.109647 1.11022e-18
0.550048 0.109718 1.11022e-18
0.550097 0.109788 1.11022e-18
0.550145 0.109859 1.11022e-18
0.550193 0.10993 1.11022e-18
0.550241 0.11 1.11022e-18
0.551603 0.112 1.11022e-18
0.552923 0.114028 1.11022e-18
0.554202 0.116082 1.11022e-18
0.555439 0.118162 1.11022e-18
0.556485 0.12 1.11022e-18
0.557188 0.121285 1.11022e-18
[...]
POINT_DATA 20002
 FIELD attributes 1
U 3 20002 float
-1.35554e-19 	-6.66266e-18 	0
0.0262441 	0.0705221 	0 0.0259542 	0.0709526 	0 0.0256656 	0.0713821 	0 0.0253785 	0.0718105 	0 0.0250927 	0.0722379 	0 0.0247633 	0.0727317 	0 0.0242452 	0.0734837 	0 0.0237318 	0.0742327 	0 0.0232229 	0.0749787 	0 0.0227185 	0.0757217 	0 0.0222335 	0.0764395 	0 0.0214975 	0.0776186 	0 0.0207643 	0.0787661 	0 0.0200351 	0.0798875 	0 0.0193154 	0.0810013 	0 0.0186289 	0.0820704 	0 0.0179633 	0.0831952 	0 0.0173062 	0.084313 	0 0.0166572 	0.085423 	0 0.0160048 	0.086479 	0 0.0153741 	0.0875053 	0 0.0147628 	0.0885834 	0 0.0141587 	0.0896549 	0 0.0135616 	0.0907198 	0 0.0129713 	0.0917782 	0 0.0123864 	0.0927655 	0 0.011818 	0.0938033 	0 0.0112557 	0.0948346 	0 0.0106994 	0.0958597 	0 0.0101489 	0.0968787 	0 0.00960693 	0.097868 	0 0.00934002 	0.0983691 	0 0.00907444 	0.0988687 	0 0.00881017 	0.0993668 	0 0.0085472 	0.0998634 	0 0.00818959 	0.10054 	0 0.0079474 	0.10099 	0 0.00770633 	0.101439 	0 0.00746637 	0.101887 	0 0.00722752 	0.102335 	0 0.00699025 	0.10278 	0 0.00648199 	0.103746 	0 0.00597806 	0.104701 	0 0.00547892 	0.10565 	0 0.00498446 	0.106595 	0 0.00449614 	0.107533 	0 0.00401268 	0.108487 	0 0.00353315 	0.109418 	0 0.00305785 	0.110344 	0 0.0025867 	0.111266 	0 0.00212036 	0.112182 	0 0.00165705 	0.113121 	0 0.00119844 	0.114031 	0 0.000743603 	0.114937 	0 0.000292471 	0.11584 	0 -0.000154805 	0.116737 	0 -0.00060086 	0.11766 	0 -0.00104119 	0.118553 	0 -0.00147811 	0.119442 	0 -0.0019117 	0.120327 	0 -0.00234213 	0.121209 	0 -0.00277243 	0.122115 	0 -0.00319635 	0.122993 	0 -0.00361719 	0.123868 	0 -0.00403501 	0.12474 	0 -0.0044502 	0.125608 	0 -0.00486514 	0.126496 	0 -0.00527396 	0.127363 	0 -0.00567998 	0.128226 	0 -0.00608325 	0.129086 	0 -0.0064843 	0.129943 	0 -0.00688354 	0.130813 	0 -0.007278 	0.13167 	0 -0.0076699 	0.132524 	0 -0.0080593 	0.133374 	0 -0.00844679 	0.134223 	0 -0.00847305 	0.134281 	0 -0.00849914 	0.13434 	0 -0.00852521 	0.134398 	0 -0.00855128 	0.134456 	0 -0.00857665 	0.134512 	0 -0.00893569 	0.135286 	0 -0.00929277 	0.136055 	0 -0.0096479 	0.136822 	0 -0.0100011 	0.137586 	0 -0.0103501 	0.138328 	0 -0.0107214 	0.139146 	0 -0.0110907 	0.13996 	0 -0.0114579 	0.14077 	0 -0.0118231 	0.141576 	0 -0.0121803 	0.14234 	0 -0.0125357 	0.143144 	0 -0.0128893 	0.143944 	0 -0.013241 	0.144741 	0 -0.0135903 	0.145532 	0 -0.0139295 	0.146262 	0 -0.0142672 	0.147052 	0 -0.0146032 	0.147838 	0 -0.0149375 	0.148622 	0 -0.0152662 	0.149372 	0 -0.0155899 	0.150091 	0 -0.0159072 	0.150865 	0 -0.0162231 	0.151637 	0 -0.0165374 	0.152406 	0 -0.0168452 	0.153115 	0 -0.0171519 	0.153822 	0 -0.0174457 	0.154579 	0 -0.0177382 	0.155333 	0 -0.0180288 	0.156059 	0 -0.0183174 	0.156753 	0 -0.0186051 	0.157446 	0 -0.0188716 	0.158183 	0 -0.019137 	0.158917 	0 -0.0194051 	0.159598 	0 -0.0196722 	0.160277 	0 -0.0199384 	0.160954 	0 -0.0201731 	0.161666 	0 -0.0204127 	0.162351 	0 -0.0206563 	0.163013 	0 -0.0208989 	0.163674 	0 -0.0211408 	0.164332 	0 -0.0213408 	0.165011 	0 -0.0215572 	0.165651 	0 -0.0217729 	0.16629 	0 -0.0219878 	0.166928 	0 -0.0222022 	0.167564 	0 -0.0222926 	0.167905 	0 -0.0223923 	0.168235 	0 -0.0224918 	0.168565 	0 -0.0225912 	0.168894 	0 -0.0226882 	0.169216 	0 -0.0227751 	0.169462 	0 -0.022862 	0.169707 	0 -0.0229487 	0.169952 	0 -0.0230352 	0.170197 	0 -0.0231281 	0.170417 	0 -0.023279 	0.170905 	0 -0.0234295 	0.171392 	0 -0.0235796 	0.171877 	0 -0.0237293 	0.172362 	0 -0.023909 	0.172771 	0 -0.0240173 	0.173204 	0 -0.0241254 	0.173636 	0 -0.0242333 	0.174066 	0 -0.0243644 	0.174459 	0 -0.0245202 	0.17481 	0 -0.0245818 	0.175176 	0 -0.0246434 	0.175541 	0 -0.0247112 	0.175899 	0 -0.0248374 	0.176194 	0 -0.0249633 	0.176488 	0 -0.0249744 	0.176773 	0 -0.0249856 	0.177059 	0 -0.025057 	0.177302 	0 -0.0251522 	0.177528 	0 -0.0252471 	0.177752 	0 -0.0252048 	0.177941 	0 -0.0251983 	0.178115 	0 -0.0252624 	0.178258 	0 -0.0253263 	0.1784 	0 -0.0253901 	0.178541 	0 -0.0252927 	0.178615 	0 -0.025321 	0.178659 	0 -0.025355 	0.178701 	0 -0.0253889 	0.178742 	0 -0.0254227 	0.178783 	0 -0.0253602 	0.178737 	0 -0.0253649 	0.178684 	0 -0.0253696 	0.178631 	0 -0.0253742 	0.178577 	0 -0.0253789 	0.178524 	0 -0.0253768 	0.178461 	0 -0.0253747 	0.178398 	0 -0.0253726 	0.178335 	0 -0.0253704 	0.178272 	0 -0.0253965 	0.178192 	0 -0.0253623 	0.177843 	0 -0.0253281 	0.177494 	0 -0.0252939 	0.177145 	0 -0.0252596 	0.176795 	0 -0.0253642 	0.176392 	0 -0.0253102 	0.175862 	0 -0.0252562 	0.175332 	0 -0.0252022 	0.174801 	0 -0.0252381 	0.174251 	0 -0.0253826 	0.173675 	0 -0.0253206 	0.172934 	0 -0.0252586 	0.172192 	0 -0.0252172 	0.171448 	0 -0.025386 	0.170688 	0 -0.0255552 	0.169921 	0 -0.0255019 	0.168935 	0 -0.0254488 	0.167947 	0 -0.0255911 	0.166968 	0 -0.0258032 	0.165987 	0 -0.0260166 	0.164995 	0 -0.0259949 	0.163726 	0 -0.0260965 	0.162474 	0 -0.0263753 	0.161245 	0 -0.0266563 	0.160005 	0 -0.0269402 	0.158749 	0 -0.0270199 	0.157166 	0 -0.0273956 	0.155655 	0 -0.0277753 	0.154129 	0 -0.0281592 	0.152588 	0 -0.0285494 	0.151022 	0 -0.0285845 	0.150713 	0 -0.0286661 	0.150421 	0 -0.0287479 	0.150129 	0 -0.0288298 	0.149836 	0 -0.0289087 	0.149554 	0 -0.0292758 	0.147855 	0 -0.0296463 	0.14614 	0 -0.0300203 	0.144407 	0 -0.0303978 	0.142656 	0 -0.0310036 	0.140968 	0 -0.0316004 	0.13856 	0 -0.0322058 	0.136118 	0 -0.0328201 	0.133643 	0 -0.0336533 	0.131263 	0 -0.0346454 	0.128875 	0 -0.0354695 	0.125985 	0 -0.0363095 	0.12305 	0 -0.0374081 	0.120266 	0 -0.0386429 	0.117522 	0 -0.0399498 	0.114613 	0 -0.0409162 	0.111685 	0 -0.0421248 	0.108948 	0 -0.0434494 	0.106259 	0 -0.0448009 	0.10352 	0 -0.0456117 	0.10188 	0 -0.0459529 	0.101007 	0 -0.0462957 	0.100128 	0 -0.04664 	0.0992444 	0 -0.0470247 	0.0984141 	0 -0.047454 	0.0976031 	0 -0.0491549 	0.0936119 	0 -0.0508928 	0.0895233 	0 -0.0526771 	0.085351 	0 -0.054783 	0.0816347 	0 -0.0573467 	0.0770791 	0 -0.058332 	0.0749537 	0 -0.0593276 	0.0728089 	0 -0.0604403 	0.0709293 	0 -0.0615786 	0.0690749 	0 -0.0624292 	0.0676884 	0 -0.063905 	0.0645028 	0 -0.0653886 	0.061272 	0 -0.066929 	0.0582026 	0 -0.0685491 	0.0554003 	0 -0.0708454 	0.0513841 	0 -0.0716279 	0.0497787 	0 -0.0724108 	0.0481698 	0 -0.0731981 	0.0465841 	0 -0.0740286 	0.0452527 	0 -0.0747488 	0.0440948 	0 -0.0764911 	0.040122 	0 -0.0782069 	0.0361302 	0 -0.0799261 	0.0325098 	0 -0.0816404 	0.0291954 	0 -0.082935 	0.0266378 	0 -0.0839113 	0.0236647 	0 -0.0848586 	0.0210787 	0 -0.0857773 	0.0185971 	0 -0.0866668 	0.0161141 	0 -0.0877347 	0.0130318 	0 -0.0879039 	0.012135 	0 -0.0880613 	0.011332 	0 -0.0882151 	0.0105287 	0 -0.0883652 	0.00972493 	0 -0.0886393 	0.00821971 	0 -0.0888486 	0.00692344 	0 -0.0890504 	0.0056299 	0 -0.0892447 	0.00433935 	0 -0.0894315 	0.00305205 	0 -0.0896041 	0.00185065 	0 -0.089565 	-9.24576e-05 	0 -0.0895066 	-0.00203313 	0 -0.0894292 	-0.00397045 	0 -0.0893327 	-0.00590352 	0 -0.0892136 	-0.00781421 	0 -0.0891486 	-0.00808514 	0 -0.0890832 	-0.00835609 	0 -0.0890175 	-0.00862706 	0 -0.0889513 	-0.00889804 	0 -0.0889053 	-0.00908548 	0 -0.0885279 	-0.0105733 	0 -0.0881365 	-0.012064 	0 -0.0877311 	-0.013557 	0 -0.0873117 	-0.015052 	0 -0.0868687 	-0.0165816 	0 -0.0861758 	-0.0183274 	0 -0.0854079 	-0.0199534 	0 -0.0846247 	-0.0215845 	0 -0.0838262 	-0.0232202 	0 -0.0829751 	-0.0249356 	0 -0.0820336 	-0.0266295 	0 -0.0810769 	-0.0283261 	0 -0.0800755 	-0.0299764 	0 -0.0790187 	-0.0315613 	0 -0.0778708 	-0.0332725 	0 -0.0770478 	-0.0344326 	0 -0.0762199 	-0.0355951 	0 -0.0753874 	-0.0367596 	0 -0.0745504 	-0.0379259 	0 -0.0739896 	-0.0387043 	0 -0.0735478 	-0.039329 	0 -0.0731049 	-0.0399542 	0 -0.0726609 	-0.0405797 	0 -0.072216 	-0.0412056 	0 -0.0717479 	-0.041863 	0 -0.0704364 	-0.0436201 	0 -0.0691183 	-0.0453788 	0 -0.0677752 	-0.0471161 	0 -0.0664093 	-0.0488322 	0 -0.0648047 	-0.0508558 	0 -0.0645247 	-0.0511937 	0 -0.0642448 	-0.0515319 	0 -0.0639651 	-0.0518701 	0 -0.0636856 	-0.0522085 	0 -0.0634246 	-0.0525247 	0 -0.0622148 	-0.0540552 	0 -0.0610102 	-0.0555875 	0 -0.0598116 	-0.0571208 	0 -0.0586194 	-0.0586543 	0 -0.057172 	-0.0605266 	0 -0.0567847 	-0.0609954 	0 -0.0563983 	-0.0614642 	0 -0.0560128 	-0.061933 	0 -0.0556282 	-0.0624017 	0 -0.0552697 	-0.0628396 	0 -0.0540471 	-0.0644337 	0 -0.0528365 	-0.0660267 	0 -0.0516384 	-0.0676179 	0 -0.0504532 	-0.0692064 	0 -0.0489267 	-0.0712712 	0 -0.0488837 	-0.0713243 	0 -0.0488407 	-0.0713775 	0 -0.0487977 	-0.0714306 	0 -0.0487547 	-0.0714838 	0 -0.048712 	-0.0715366 	0 -0.0475489 	-0.0730477 	0 -0.0463871 	-0.0745385 	0 -0.0452381 	-0.076024 	0 -0.0441019 	-0.0775036 	0 -0.0431201 	-0.0787916 	0 -0.0424978 	-0.0797071 	0 -0.0418805 	-0.0806204 	0 -0.0412681 	-0.0815313 	0 -0.0406606 	-0.0824398 	0 -0.0399287 	-0.0835402 	0 -0.0396313 	-0.0839324 	0 -0.039335 	-0.0843245 	0 -0.0390399 	-0.0847164 	0 -0.038746 	-0.0851083 	0 -0.0384596 	-0.0854915 	0 -0.0376411 	-0.0867343 	0 -0.0368046 	-0.0879316 	0 -0.0359616 	-0.0891011 	0 -0.035128 	-0.0902668 	0 -0.0343489 	-0.0913649 	0 -0.0336352 	-0.0925382 	0 -0.0329299 	-0.0937082 	0 -0.032233 	-0.0948747 	0 -0.0315444 	-0.0960377 	0 -0.0308599 	-0.0971057 	0 -0.0307042 	-0.0973777 	0 -0.0305489 	-0.0976494 	0 -0.030394 	-0.0979209 	0 -0.0302394 	-0.0981921 	0 -0.0300741 	-0.0984828 	0 -0.0296003 	-0.0991849 	0 -0.0291303 	-0.099887 	0 -0.0286638 	-0.100589 	0 -0.028201 	-0.101291 	0 -0.0277501 	-0.10198 	0 -0.0272271 	-0.102941 	0 -0.0266834 	-0.103864 	0 -0.026119 	-0.104747 	0 -0.0255597 	-0.105629 	0 -0.0250156 	-0.106494 	0 -0.0245506 	-0.1074 	0 -0.0240901 	-0.108306 	0 -0.0236339 	-0.10921 	0 -0.0231322 	-0.110038 	0 -0.0226369 	-0.110847 	0 -0.0222197 	-0.111696 	0 -0.0218061 	-0.112543 	0 -0.0213958 	-0.113389 	0 -0.0209889 	-0.114233 	0 -0.0205534 	-0.115011 	0 -0.020325 	-0.115489 	0 -0.0200975 	-0.115966 	0 -0.0198711 	-0.116443 	0 -0.0196457 	-0.116919 	0 -0.0193864 	-0.117467 	0 -0.019246 	-0.117711 	0 -0.0191059 	-0.117955 	0 -0.0189663 	-0.118199 	0 -0.0188269 	-0.118443 	0 -0.0186883 	-0.118687 	0 -0.0183569 	-0.119311 	0 -0.0180088 	-0.119912 	0 -0.0176629 	-0.120514 	0 -0.0173191 	-0.121116 	0 -0.0169792 	-0.121716 	0 -0.0167081 	-0.122341 	0 -0.0163987 	-0.122911 	0 -0.0160794 	-0.123465 	0 -0.0157618 	-0.124019 	0 -0.0154472 	-0.124572 	0 -0.0151986 	-0.125151 	0 -0.0149495 	-0.125729 	0 -0.0146527 	-0.126235 	0 -0.0143573 	-0.126741 	0 -0.0140641 	-0.127246 	0 -0.0138344 	-0.127779 	0 -0.0136057 	-0.128313 	0 -0.0133581 	-0.128817 	0 -0.0130815 	-0.129275 	0 -0.0128067 	-0.129731 	0 -0.0125928 	-0.130219 	0 -0.0123798 	-0.130707 	0 -0.0121676 	-0.131194 	0 -0.0119145 	-0.131615 	0 -0.0116553 	-0.132024 	0 -0.0114547 	-0.132465 	0 -0.0112548 	-0.132907 	0 -0.0110556 	-0.133348 	0 -0.0108393 	-0.133759 	0 -0.0105935 	-0.13412 	0 -0.010404 	-0.134515 	0 -0.0102152 	-0.13491 	0 -0.0100269 	-0.135304 	0 -0.00983914 	-0.135698 	0 -0.00960714 	-0.136015 	0 -0.00942701 	-0.136364 	0 -0.00924732 	-0.136713 	0 -0.00906808 	-0.137061 	0 -0.00888928 	-0.137408 	0 -0.00868408 	-0.137708 	0 -0.00851157 	-0.138011 	0 -0.00833941 	-0.138313 	0 -0.0081676 	-0.138614 	0 -0.00799612 	-0.138915 	0 -0.00781344 	-0.139194 	0 -0.0076717 	-0.139413 	0 -0.00753014 	-0.139631 	0 -0.00738878 	-0.139848 	0 -0.0072476 	-0.140065 	0 -0.00707674 	-0.140327 	0 -0.00705798 	-0.140348 	0 -0.00703923 	-0.140369 	0 -0.00702048 	-0.14039 	0 -0.00700173 	-0.14041 	0 -0.00698299 	-0.140431 	0 -0.00682038 	-0.140577 	0 -0.0066567 	-0.140721 	0 -0.00649326 	-0.140865 	0 -0.00633006 	-0.141011 	0 -0.00616718 	-0.141158 	0 -0.0060188 	-0.141283 	0 -0.00585835 	-0.141388 	0 -0.00569808 	-0.141494 	0 -0.00553799 	-0.1416 	0 -0.00537815 	-0.141707 	0 -0.00524112 	-0.141811 	0 -0.00508243 	-0.141876 	0 -0.00492387 	-0.141941 	0 -0.00476542 	-0.142008 	0 -0.00460715 	-0.142074 	0 -0.00447879 	-0.142154 	0 -0.00432029 	-0.142178 	0 -0.00416186 	-0.142202 	0 -0.00400349 	-0.142227 	0 -0.00384525 	-0.142253 	0 -0.0037229 	-0.142305 	0 -0.00356288 	-0.142286 	0 -0.00340287 	-0.142269 	0 -0.00324287 	-0.142251 	0 -0.00308294 	-0.142234 	0 -0.00296394 	-0.142255 	0 -0.00280049 	-0.142193 	0 -0.002637 	-0.142132 	0 -0.00247348 	-0.14207 	0 -0.00230995 	-0.14201 	0 -0.00218943 	-0.141991 	0 -0.0020225 	-0.141887 	0 -0.00185342 	-0.14178 	0 -0.00168424 	-0.141673 	0 -0.00151499 	-0.141567 	0 -0.00138855 	-0.141501 	0 -0.00121714 	-0.141356 	0 -0.00104011 	-0.141201 	0 -0.00086293 	-0.141046 	0 -0.0006856 	-0.140891 	0 -0.00055105 	-0.140777 	0 -0.000371386 	-0.140585 	0 -0.000183889 	-0.140379 	0 3.85117e-06 	-0.140174 	0 0.000191829 	-0.139969 	0 0.000336872 	-0.139801 	0 0.000529073 	-0.139556 	0 0.000729895 	-0.139298 	0 0.00093106 	-0.139039 	0 0.00113258 	-0.138781 	0 0.00129083 	-0.138556 	0 0.00150071 	-0.138253 	0 0.00171825 	-0.137937 	0 0.00193625 	-0.137622 	0 0.00215476 	-0.137306 	0 0.00232946 	-0.13702 	0 0.00256335 	-0.13665 	0 0.00280167 	-0.136274 	0 0.00304062 	-0.135897 	0 0.00328027 	-0.13552 	0 0.003478 	-0.135163 	0 0.00374105 	-0.134721 	0 0.00400495 	-0.134279 	0 0.0042697 	-0.133836 	0 0.00453545 	-0.133392 	0 0.00476882 	-0.132949 	0 0.00506279 	-0.132435 	0 0.0053579 	-0.13192 	0 0.00565415 	-0.131404 	0 0.00595181 	-0.130887 	0 0.00623207 	-0.130347 	0 0.00656343 	-0.129754 	0 0.00689633 	-0.12916 	0 0.00723078 	-0.128564 	0 0.00756723 	-0.127966 	0 0.00790878 	-0.127317 	0 0.00828517 	-0.126636 	0 0.00866364 	-0.125954 	0 0.00904421 	-0.12527 	0 0.0094277 	-0.124583 	0 0.0095013 	-0.124443 	0 0.00958133 	-0.124298 	0 0.00966145 	-0.124153 	0 0.00974168 	-0.124008 	0 0.00981477 	-0.123876 	0 0.0101638 	-0.12317 	0 0.0105147 	-0.12246 	0 0.0108674 	-0.121745 	0 0.011222 	-0.121025 	0 0.0116075 	-0.120291 	0 0.0120944 	-0.119306 	0 0.0125848 	-0.118313 	0 0.0130789 	-0.117312 	0 0.0135768 	-0.116302 	0 0.0141571 	-0.115269 	0 0.0147179 	-0.114142 	0 0.0152836 	-0.113004 	0 0.0158543 	-0.111856 	0 0.0164677 	-0.110699 	0 0.0171605 	-0.109523 	0 0.0178103 	-0.108234 	0 0.0184669 	-0.106932 	0 0.0191354 	-0.105619 	0 0.0199221 	-0.104313 	0 0.0207287 	-0.102974 	0 0.0214873 	-0.1015 	0 0.0222554 	-0.100012 	0 0.0231435 	-0.0985443 	0 0.0240604 	-0.0970656 	0 0.0250114 	-0.0955342 	0 0.0259061 	-0.093848 	0 0.0269326 	-0.0922019 	0 0.0279961 	-0.0905467 	0 0.0290762 	-0.0888713 	0 0.0301765 	-0.0871702 	0 0.0301848 	-0.0871552 	0 0.0301931 	-0.0871403 	0 0.0302014 	-0.0871253 	0 0.0302099 	-0.0871106 	0 0.0302192 	-0.0870967 	0 0.0313745 	-0.0850806 	0 0.0325476 	-0.0830328 	0 0.0337391 	-0.0809524 	0 0.0349927 	-0.0788956 	0 0.0364576 	-0.0767574 	0 0.0378384 	-0.0744248 	0 0.0392433 	-0.0720572 	0 0.0408066 	-0.0698601 	0 0.0424004 	-0.0676374 	0 0.0442733 	-0.0650289 	0 0.0444103 	-0.0648091 	0 0.0445474 	-0.0645892 	0 0.0446967 	-0.0643907 	0 0.0448465 	-0.0641925 	0 0.0449899 	-0.0640027 	0 0.0465736 	-0.0614877 	0 0.048176 	-0.0589394 	0 0.0498044 	-0.0563834 	0 0.0515495 	-0.0540745 	0 0.0538612 	-0.0510074 	0 0.0543544 	-0.0502581 	0 0.0548486 	-0.0495079 	0 0.0553568 	-0.0487987 	0 0.0558829 	-0.0481438 	0 0.0563542 	-0.0475575 	0 0.058058 	-0.0449292 	0 0.0597609 	-0.0422898 	0 0.0615159 	-0.0399016 	0 0.0632872 	-0.0376172 	0 0.0651349 	-0.0352206 	0 0.0653276 	-0.034901 	0 0.0655216 	-0.0345927 	0 0.0657203 	-0.0343189 	0 0.0659188 	-0.0340452 	0 0.0661353 	-0.0337459 	0 0.0672699 	-0.0319735 	0 0.0683953 	-0.0302073 	0 0.0695109 	-0.0284485 	0 0.0706388 	-0.0268837 	0 0.0716294 	-0.0256044 	0 0.0726215 	-0.0238584 	0 0.0735978 	-0.0221199 	0 0.0745741 	-0.0205911 	0 0.0755421 	-0.019154 	0 0.0764223 	-0.017832 	0 0.0771074 	-0.0163328 	0 0.0777846 	-0.0150181 	0 0.0784507 	-0.0137765 	0 0.0791035 	-0.0125375 	0 0.0797187 	-0.0113482 	0 0.0800715 	-0.0102996 	0 0.0804154 	-0.00936661 	0 0.0807507 	-0.00843413 	0 0.0810774 	-0.00750222 	0 0.0816708 	-0.0057658 	0 0.0816892 	-0.00565142 	0 0.0817073 	-0.00554376 	0 0.0817253 	-0.0054361 	0 0.0817432 	-0.00532843 	0 0.0817646 	-0.00519829 	0 0.0818944 	-0.00431132 	0 0.0820182 	-0.0034255 	0 0.0821359 	-0.00254093 	0 0.0822475 	-0.00165771 	0 0.0823527 	-0.000814009 	0 0.0822946 	9.70036e-05 	0 0.0822293 	0.00100811 	0 0.0821571 	0.0019192 	0 0.0820777 	0.00283015 	0 0.0819911 	0.00372104 	0 0.0818555 	0.00418516 	0 0.0817179 	0.00464969 	0 0.0815784 	0.0051146 	0 0.0814369 	0.00557989 	0 0.081414 	0.00565418 	0 0.0812624 	0.00612475 	0 0.0811082 	0.00659611 	0 0.0809513 	0.00706825 	0 0.0807918 	0.00754114 	0 0.0806288 	0.00801698 	0 0.0801918 	0.00887033 	0 0.0797415 	0.009698 	0 0.0792828 	0.0105294 	0 0.0788155 	0.0113646 	0 0.0783335 	0.0122142 	0 0.0777409 	0.0131289 	0 0.0771183 	0.0139472 	0 0.0764875 	0.0147706 	0 0.0758484 	0.015599 	0 0.0751872 	0.0164501 	0 0.0744331 	0.0173613 	0 0.0736699 	0.0182777 	0 0.0728815 	0.0191363 	0 0.0720795 	0.0199802 	0 0.0712422 	0.0208591 	0 0.0703305 	0.0217898 	0 0.06941 	0.0227275 	0 0.0684807 	0.0236723 	0 0.0675428 	0.024624 	0 0.0665352 	0.025592 	0 0.0663222 	0.0257872 	0 0.0661089 	0.0259828 	0 0.0658953 	0.0261787 	0 0.0656813 	0.0263751 	0 0.0654867 	0.0265538 	0 0.0646064 	0.0273733 	0 0.0637207 	0.0281996 	0 0.0628297 	0.0290328 	0 0.0619336 	0.0298727 	0 0.0609692 	0.0307787 	0 0.0597506 	0.0319152 	0 0.0585245 	0.0330622 	0 0.0572916 	0.0342195 	0 0.0560522 	0.0353865 	0 0.0546233 	0.0366882 	0 0.0544655 	0.0368318 	0 0.0543077 	0.0369755 	0 0.0541498 	0.0371194 	0 0.053992 	0.0372635 	0 0.0538413 	0.0374011 	0 0.0526077 	0.0385721 	0 0.0513737 	0.039754 	0 0.0501401 	0.0409461 	0 0.0489079 	0.0421478 	0 0.0474249 	0.0436072 	0 0.0468968 	0.044125 	0 0.0463696 	0.0446442 	0 0.0458432 	0.0451645 	0 0.0453178 	0.045686 	0 0.0448549 	0.0461473 	0 0.0437801 	0.0472829 	0 0.0427116 	0.0484229 	0 0.0416502 	0.0495666 	0 0.0405963 	0.0507135 	0 0.0392512 	0.0521916 	0 0.0389453 	0.0525251 	0 0.0386402 	0.0528587 	0 0.0383359 	0.0531924 	0 0.0380324 	0.0535262 	0 0.0377447 	0.0538436 	0 0.0365045 	0.0553059 	0 0.0352814 	0.0567689 	0 0.0340683 	0.0582175 	0 0.0328649 	0.0596494 	0 0.0318782 	0.0608358 	0 0.0314679 	0.0613728 	0 0.03106 	0.061909 	0 0.0306545 	0.0624443 	0 0.0302513 	0.0629788 	0 0.0297781 	0.0636088 	0 0.0292023 	0.0643569 	0 0.0286316 	0.0651032 	0 0.028066 	0.0658478 	0 0.0275054 	0.0665907 	0 0.0269784 	0.0672935 	0 0.0261001 	0.0685595 	0 0.0252356 	0.0698203 	0 0.0243692 	0.0710416 	0 0.023514 	0.0722525 	0 0.0227238 	0.0733816 	0 0.0219544 	0.0745781 	0 0.0211963 	0.0757683 	0 0.0204493 	0.0769521 	0 0.0197131 	0.0781297 	0 0.0190043 	0.0792262 	0 0.0187155 	0.0797035 	0 0.0184283 	0.0801797 	0 0.0181428 	0.0806547 	0 0.0178588 	0.0811286 	0 0.0175161 	0.0817025 	0 0.0171384 	0.0823188 	0 0.0167637 	0.0829334 	0 0.0163917 	0.0835463 	0 0.0160226 	0.0841576 	0 0.0156606 	0.0847599 	0 0.0150347 	0.0858538 	0 0.0144086 	0.0869166 	0 0.0137904 	0.0879739 	0 0.0131799 	0.0890259 	0 0.0125863 	0.0900565 	0 0.0120113 	0.0911227 	0 0.0114395 	0.0921693 	0 0.0108681 	0.0931866 	0 0.0103033 	0.0941988 	0 0.00975031 	0.0951963 	0 0.00921255 	0.0962286 	0 0.00868071 	0.0972561 	0 0.00814875 	0.0982487 	0 0.00762052 	0.099227 	0 0.00710087 	0.100195 	0 0.006593 	0.101197 	0 0.00609024 	0.102195 	0 0.00559053 	0.103175 	0 0.0050922 	0.104124 	0 0.00460031 	0.105065 	0 0.00411685 	0.106042 	0 0.00363788 	0.107014 	0 0.00316289 	0.107977 	0 0.0026894 	0.108901 	0 0.00222091 	0.109819 	0 0.00175774 	0.110773 	0 0.00129853 	0.111723 	0 0.000843183 	0.112669 	0 0.000390761 	0.113571 	0 -5.76921e-05 	0.114469 	0 -0.000503635 	0.115403 	0 -0.000946028 	0.116334 	0 -0.00138493 	0.11726 	0 -0.00181914 	0.118143 	0 -0.00225014 	0.119024 	0 -0.00268109 	0.119941 	0 -0.00310885 	0.120855 	0 -0.0035331 	0.121762 	0 -0.00395126 	0.122629 	0 -0.00436675 	0.123494 	0 -0.0047842 	0.124398 	0 -0.00519873 	0.125298 	0 -0.00560897 	0.126184 	0 -0.00601259 	0.127039 	0 -0.00641396 	0.127891 	0 -0.00681866 	0.128782 	0 -0.0072207 	0.12967 	0 -0.00761668 	0.130536 	0 -0.00800679 	0.13138 	0 -0.00839498 	0.132222 	0 -0.008787 	0.133103 	0 -0.00917659 	0.13398 	0 -0.00955758 	0.134826 	0 -0.0099347 	0.135661 	0 -0.0103102 	0.136495 	0 -0.0106889 	0.137366 	0 -0.0110642 	0.138229 	0 -0.0114305 	