# vtk DataFile Version 2.0
track0
ASCII
DATASET POLYDATA
POINTS 18148 float
1.11022e-18 0.5 1.11022e-18
0.391304 0.5 1.11022e-18
0.391043 0.499458 1.11022e-18
0.390785 0.498916 1.11022e-18
0.39053 0.498371 1.11022e-18
0.390277 0.497826 1.11022e-18
0.39 0.497219 1.11022e-18
0.38935 0.495775 1.11022e-18
0.388718 0.494323 1.11022e-18
0.388105 0.492863 1.11022e-18
0.387509 0.491396 1.11022e-18
0.386962 0.49 1.11022e-18
0.386203 0.488 1.11022e-18
0.385474 0.485989 1.11022e-18
0.384773 0.483968 1.11022e-18
0.3841 0.481938 1.11022e-18
0.383487 0.48 1.11022e-18
0.382883 0.478 1.11022e-18
0.382303 0.475993 1.11022e-18
0.381746 0.473979 1.11022e-18
0.381211 0.47196 1.11022e-18
0.380716 0.47 1.11022e-18
0.380573 0.469407 1.11022e-18
0.380431 0.468814 1.11022e-18
0.380292 0.46822 1.11022e-18
0.380154 0.467626 1.11022e-18
0.38 0.466955 1.11022e-18
0.379686 0.465564 1.11022e-18
0.379382 0.464171 1.11022e-18
0.379087 0.462776 1.11022e-18
0.378801 0.461379 1.11022e-18
0.378529 0.46 1.11022e-18
0.378146 0.458 1.11022e-18
0.37778 0.455997 1.11022e-18
0.37743 0.453991 1.11022e-18
0.377098 0.451982 1.11022e-18
0.376788 0.45 1.11022e-18
0.376491 0.448 1.11022e-18
0.376208 0.445998 1.11022e-18
0.37594 0.443994 1.11022e-18
0.375687 0.441988 1.11022e-18
0.375452 0.44 1.11022e-18
0.37523 0.438 1.11022e-18
0.375021 0.435999 1.11022e-18
0.374826 0.433996 1.11022e-18
0.374644 0.431992 1.11022e-18
0.374477 0.43 1.11022e-18
0.374323 0.428 1.11022e-18
0.374182 0.425999 1.11022e-18
0.374053 0.423997 1.11022e-18
0.373936 0.421995 1.11022e-18
0.373833 0.42 1.11022e-18
0.373743 0.418 1.11022e-18
0.373665 0.416 1.11022e-18
0.373599 0.413999 1.11022e-18
0.373544 0.411997 1.11022e-18
0.373503 0.41 1.11022e-18
0.373474 0.408 1.11022e-18
0.373457 0.406 1.11022e-18
0.373452 0.404 1.11022e-18
0.373459 0.401999 1.11022e-18
0.373478 0.4 1.11022e-18
0.37351 0.398 1.11022e-18
0.373555 0.396 1.11022e-18
0.373611 0.394001 1.11022e-18
0.373679 0.392002 1.11022e-18
0.373761 0.39 1.11022e-18
0.373856 0.388 1.11022e-18
0.373964 0.386001 1.11022e-18
0.374084 0.384002 1.11022e-18
0.374217 0.382004 1.11022e-18
0.374365 0.38 1.11022e-18
0.374527 0.378 1.11022e-18
0.374703 0.376001 1.11022e-18
0.374892 0.374004 1.11022e-18
0.375096 0.372007 1.11022e-18
0.375317 0.37 1.11022e-18
0.375553 0.368 1.11022e-18
0.375804 0.366002 1.11022e-18
0.376071 0.364006 1.11022e-18
0.376355 0.362012 1.11022e-18
0.37666 0.36 1.11022e-18
0.376981 0.358 1.11022e-18
0.37732 0.356003 1.11022e-18
0.377677 0.354009 1.11022e-18
0.378055 0.352019 1.11022e-18
0.378459 0.35 1.11022e-18
0.378767 0.348543 1.11022e-18
0.379087 0.347088 1.11022e-18
0.379418 0.345636 1.11022e-18
0.379762 0.344187 1.11022e-18
0.38 0.343224 1.11022e-18
0.380163 0.342579 1.11022e-18
0.380329 0.341935 1.11022e-18
0.380497 0.341292 1.11022e-18
0.380668 0.340649 1.11022e-18
0.380844 0.34 1.11022e-18
0.381394 0.338 1.11022e-18
0.381972 0.336008 1.11022e-18
0.382578 0.334024 1.11022e-18
0.383213 0.332049 1.11022e-18
0.383907 0.33 1.11022e-18
0.384624 0.328 1.11022e-18
0.385375 0.326013 1.11022e-18
0.386164 0.32404 1.11022e-18
0.386991 0.322083 1.11022e-18
0.387924 0.32 1.11022e-18
0.388339 0.319129 1.11022e-18
0.388763 0.318263 1.11022e-18
0.389197 0.317401 1.11022e-18
0.38964 0.316544 1.11022e-18
0.39 0.315868 1.11022e-18
0.390639 0.314694 1.11022e-18
0.391296 0.313531 1.11022e-18
0.391972 0.312379 1.11022e-18
0.392668 0.311239 1.11022e-18
0.393455 0.31 1.11022e-18
0.394764 0.30803 1.11022e-18
0.39614 0.306106 1.11022e-18
0.397585 0.304234 1.11022e-18
0.399103 0.30242 1.11022e-18
0.4 0.301433 1.11022e-18
0.400274 0.301147 1.11022e-18
0.40055 0.300862 1.11022e-18
0.400828 0.300579 1.11022e-18
0.401107 0.300298 1.11022e-18
0.401409 0.3 1.11022e-18
0.403127 0.298328 1.11022e-18
0.404919 0.296735 1.11022e-18
0.406785 0.295229 1.11022e-18
0.408722 0.293816 1.11022e-18
0.41 0.292979 1.11022e-18
0.410979 0.292383 1.11022e-18
0.411973 0.291811 1.11022e-18
0.412979 0.291262 1.11022e-18
0.413999 0.290738 1.11022e-18
0.415522 0.29 1.11022e-18
0.416417 0.289605 1.11022e-18
0.417321 0.289228 1.11022e-18
0.418232 0.28887 1.11022e-18
0.41915 0.28853 1.11022e-18
0.42 0.288236 1.11022e-18
0.422 0.287584 1.11022e-18
0.424025 0.287015 1.11022e-18
0.426071 0.286527 1.11022e-18
0.428135 0.28612 1.11022e-18
0.43 0.285826 1.11022e-18
0.432 0.285577 1.11022e-18
0.434007 0.285394 1.11022e-18
0.436019 0.285275 1.11022e-18
0.438034 0.285217 1.11022e-18
0.44 0.285219 1.11022e-18
0.442 0.285275 1.11022e-18
0.443998 0.285384 1.11022e-18
0.445992 0.285544 1.11022e-18
0.447982 0.285753 1.11022e-18
0.45 0.286012 1.11022e-18
0.452 0.286315 1.11022e-18
0.453993 0.286661 1.11022e-18
0.455978 0.287049 1.11022e-18
0.457955 0.287477 1.11022e-18
0.46 0.287961 1.11022e-18
0.461585 0.288369 1.11022e-18
0.463163 0.2888 1.11022e-18
0.464736 0.289253 1.11022e-18
0.466302 0.289729 1.11022e-18
0.467153 0.29 1.11022e-18
0.467722 0.290186 1.11022e-18
0.468291 0.290375 1.11022e-18
0.468858 0.290567 1.11022e-18
0.469425 0.290761 1.11022e-18
0.47 0.290962 1.11022e-18
0.472 0.29167 1.11022e-18
0.473987 0.292413 1.11022e-18
0.475962 0.293189 1.11022e-18
0.477924 0.293996 1.11022e-18
0.48 0.294889 1.11022e-18
0.482 0.295788 1.11022e-18
0.483985 0.29672 1.11022e-18
0.485955 0.297683 1.11022e-18
0.487909 0.298677 1.11022e-18
0.49 0.299782 1.11022e-18
0.49008 0.299825 1.11022e-18
0.490159 0.299869 1.11022e-18
0.490239 0.299913 1.11022e-18
0.490318 0.299957 1.11022e-18
0.490397 0.3 1.11022e-18
0.492317 0.301062 1.11022e-18
0.494221 0.302155 1.11022e-18
0.496107 0.303278 1.11022e-18
0.497976 0.304429 1.11022e-18
0.5 0.30572 1.11022e-18
0.501295 0.306576 1.11022e-18
0.50258 0.307446 1.11022e-18
0.503856 0.308331 1.11022e-18
0.505121 0.309229 1.11022e-18
0.506182 0.31 1.11022e-18
0.506946 0.310565 1.11022e-18
0.507705 0.311136 1.11022e-18
0.508461 0.311712 1.11022e-18
0.509213 0.312293 1.11022e-18
0.51 0.31291 1.11022e-18
0.511782 0.314328 1.11022e-18
0.51354 0.315776 1.11022e-18
0.515273 0.317254 1.11022e-18
0.516981 0.31876 1.11022e-18
0.518342 0.32 1.11022e-18
0.518674 0.32031 1.11022e-18
0.519004 0.320622 1.11022e-18
0.519334 0.320934 1.11022e-18
0.519662 0.321248 1.11022e-18
0.52 0.321573 1.11022e-18
0.52174 0.323258 1.11022e-18
0.523449 0.324976 1.11022e-18
0.525127 0.326724 1.11022e-18
0.526772 0.328502 1.11022e-18
0.528109 0.33 1.11022e-18
0.528487 0.330437 1.11022e-18
0.528863 0.330875 1.11022e-18
0.529238 0.331315 1.11022e-18
0.52961 0.331757 1.11022e-18
0.53 0.332223 1.11022e-18
0.531289 0.333778 1.11022e-18
0.532554 0.335353 1.11022e-18
0.533795 0.336947 1.11022e-18
0.535012 0.33856 1.11022e-18
0.536066 0.34 1.11022e-18
0.536852 0.341106 1.11022e-18
0.537628 0.342219 1.11022e-18
0.538393 0.343341 1.11022e-18
0.539147 0.344469 1.11022e-18
0.54 0.345775 1.11022e-18
0.540539 0.34662 1.11022e-18
0.541072 0.347469 1.11022e-18
0.541598 0.348322 1.11022e-18
0.542119 0.349178 1.11022e-18
0.54261 0.35 1.11022e-18
0.543788 0.352 1.11022e-18
0.544934 0.354019 1.11022e-18
0.546047 0.356056 1.11022e-18
0.547127 0.35811 1.11022e-18
0.548084 0.36 1.11022e-18
0.548467 0.360784 1.11022e-18
0.548846 0.361571 1.11022e-18
0.54922 0.362359 1.11022e-18
0.54959 0.36315 1.11022e-18
0.55 0.36404 1.11022e-18
0.55054 0.365232 1.11022e-18
0.551071 0.366428 1.11022e-18
0.551591 0.367629 1.11022e-18
0.552102 0.368834 1.11022e-18
0.552585 0.37 1.11022e-18
0.553395 0.372 1.11022e-18
0.554179 0.37401 1.11022e-18
0.554938 0.37603 1.11022e-18
0.555672 0.37806 1.11022e-18
0.556345 0.38 1.11022e-18
0.557012 0.382 1.11022e-18
0.557655 0.384008 1.11022e-18
0.558276 0.386023 1.11022e-18
0.558873 0.388044 1.11022e-18
0.559427 0.39 1.11022e-18
0.559541 0.390423 1.11022e-18
0.559655 0.390845 1.11022e-18
0.559768 0.391269 1.11022e-18
0.55988 0.391692 1.11022e-18
0.56 0.392153 1.11022e-18
0.560406 0.393722 1.11022e-18
0.560799 0.395295 1.11022e-18
0.561179 0.396871 1.11022e-18
0.561546 0.39845 1.11022e-18
0.561893 0.4 1.11022e-18
0.562323 0.402 1.11022e-18
0.562735 0.404004 1.11022e-18
0.563126 0.406012 1.11022e-18
0.563496 0.408024 1.11022e-18
0.563839 0.41 1.11022e-18
0.564166 0.412 1.11022e-18
0.564474 0.414003 1.11022e-18
0.564764 0.416009 1.11022e-18
0.565034 0.418017 1.11022e-18
0.56528 0.42 1.11022e-18
0.565508 0.422 1.11022e-18
0.565718 0.424002 1.11022e-18
0.565909 0.426006 1.11022e-18
0.566081 0.428012 1.11022e-18
0.566231 0.43 1.11022e-18
0.566362 0.432 1.11022e-18
0.566473 0.434001 1.11022e-18
0.566566 0.436003 1.11022e-18
0.566638 0.438006 1.11022e-18
0.56669 0.44 1.11022e-18
0.566721 0.442 1.11022e-18
0.566731 0.444 1.11022e-18
0.566721 0.446 1.11022e-18
0.566691 0.448 1.11022e-18
0.566638 0.45 1.11022e-18
0.566562 0.452 1.11022e-18
0.566464 0.453999 1.11022e-18
0.566343 0.455997 1.11022e-18
0.5662 0.457993 1.11022e-18
0.566031 0.46 1.11022e-18
0.565837 0.462 1.11022e-18
0.565618 0.463997 1.11022e-18
0.565374 0.465992 1.11022e-18
0.565103 0.467983 1.11022e-18
0.5648 0.47 1.11022e-18
0.56447 0.472 1.11022e-18
0.564111 0.473995 1.11022e-18
0.563723 0.475985 1.11022e-18
0.563304 0.477968 1.11022e-18
0.562839 0.48 1.11022e-18
0.562346 0.482 1.11022e-18
0.561819 0.483991 1.11022e-18
0.561256 0.485973 1.11022e-18
0.560656 0.487944 1.11022e-18
0.56 0.489959 1.11022e-18
0.559997 0.489967 1.11022e-18
0.559994 0.489976 1.11022e-18
0.559992 0.489984 1.11022e-18
0.559989 0.489992 1.11022e-18
0.559986 0.49 1.11022e-18
0.559289 0.492 1.11022e-18
0.558551 0.493985 1.11022e-18
0.557771 0.495954 1.11022e-18
0.556949 0.497906 1.11022e-18
0.556011 0.5 1.11022e-18
0.555054 0.502 1.11022e-18
0.554047 0.503976 1.11022e-18
0.552991 0.505925 1.11022e-18
0.551883 0.507846 1.11022e-18
0.550564 0.51 1.11022e-18
0.550451 0.510172 1.11022e-18
0.550338 0.510344 1.11022e-18
0.550224 0.510515 1.11022e-18
0.55011 0.510686 1.11022e-18
0.55 0.510851 1.11022e-18
0.548766 0.512681 1.11022e-18
0.547484 0.514476 1.11022e-18
0.546152 0.516236 1.11022e-18
0.544772 0.517958 1.11022e-18
0.54304 0.52 1.11022e-18
0.542432 0.52067 1.11022e-18
0.541816 0.521332 1.11022e-18
0.541193 0.521988 1.11022e-18
0.540562 0.522636 1.11022e-18
[...]
POINT_DATA 18148
 FIELD attributes 1
U 3 18148 float
-2.15814e-19 	-8.18482e-18 	0
0.0704415 	0.146239 	0 0.0699004 	0.147035 	0 0.0693596 	0.147826 	0 0.0688192 	0.148612 	0 0.0682792 	0.149393 	0 0.06768 	0.150255 	0 0.0662662 	0.152311 	0 0.0648552 	0.154333 	0 0.063447 	0.15632 	0 0.0620419 	0.158273 	0 0.0607143 	0.160091 	0 0.0589977 	0.162622 	0 0.0572879 	0.165098 	0 0.0554868 	0.167432 	0 0.0536253 	0.169652 	0 0.0518593 	0.171705 	0 0.0502367 	0.173733 	0 0.0486177 	0.175711 	0 0.0470025 	0.177642 	0 0.0453912 	0.179524 	0 0.0437546 	0.181231 	0 0.0432944 	0.181699 	0 0.0428344 	0.182163 	0 0.0423745 	0.182623 	0 0.0419148 	0.183079 	0 0.0413958 	0.18359 	0 0.0403265 	0.184634 	0 0.0392578 	0.185658 	0 0.0381899 	0.18666 	0 0.0371227 	0.187643 	0 0.0360715 	0.188591 	0 0.0347409 	0.189902 	0 0.0332535 	0.191034 	0 0.031766 	0.192127 	0 0.0302785 	0.193179 	0 0.0288132 	0.194177 	0 0.0275407 	0.19512 	0 0.0262483 	0.196013 	0 0.0248096 	0.196744 	0 0.0233699 	0.197438 	0 0.0219437 	0.198088 	0 0.0207061 	0.198677 	0 0.019468 	0.199235 	0 0.0181579 	0.199702 	0 0.0167619 	0.200064 	0 0.0153735 	0.200388 	0 0.0141651 	0.200647 	0 0.0129555 	0.200875 	0 0.0117405 	0.201069 	0 0.0103841 	0.201122 	0 0.00903101 	0.20114 	0 0.00784652 	0.201088 	0 0.00666016 	0.201005 	0 0.00547198 	0.200892 	0 0.00417708 	0.200673 	0 0.00285509 	0.2004 	0 0.00168785 	0.200052 	0 0.000518193 	0.199673 	0 -0.000653855 	0.199263 	0 -0.00191682 	0.198767 	0 -0.00321587 	0.198216 	0 -0.00437627 	0.19758 	0 -0.00553964 	0.196912 	0 -0.00670597 	0.196213 	0 -0.00796878 	0.195433 	0 -0.00925916 	0.194605 	0 -0.010426 	0.193681 	0 -0.0115964 	0.192724 	0 -0.0127747 	0.191731 	0 -0.0140641 	0.190662 	0 -0.0153629 	0.189552 	0 -0.0165488 	0.188332 	0 -0.0177391 	0.187076 	0 -0.0189783 	0.185772 	0 -0.0202878 	0.184413 	0 -0.0216113 	0.183004 	0 -0.0228284 	0.181473 	0 -0.0240509 	0.1799 	0 -0.0253797 	0.178277 	0 -0.0267246 	0.176607 	0 -0.0280902 	0.174873 	0 -0.029352 	0.173002 	0 -0.0306843 	0.171087 	0 -0.0320738 	0.169124 	0 -0.0334713 	0.167108 	0 -0.0349002 	0.165005 	0 -0.035875 	0.163365 	0 -0.03693 	0.161707 	0 -0.0379903 	0.160018 	0 -0.0390559 	0.158296 	0 -0.0397695 	0.157126 	0 -0.0402393 	0.156355 	0 -0.0407101 	0.155577 	0 -0.0411818 	0.154792 	0 -0.0416552 	0.154002 	0 -0.0421705 	0.153212 	0 -0.0436672 	0.150619 	0 -0.0451743 	0.14796 	0 -0.0466918 	0.145234 	0 -0.0482738 	0.142464 	0 -0.0500057 	0.139532 	0 -0.0516149 	0.136428 	0 -0.0532373 	0.133243 	0 -0.0549752 	0.130025 	0 -0.0567586 	0.126733 	0 -0.0586909 	0.123097 	0 -0.0594641 	0.121448 	0 -0.0602656 	0.119792 	0 -0.0611099 	0.118137 	0 -0.0619578 	0.11646 	0 -0.0626339 	0.115112 	0 -0.0637685 	0.112851 	0 -0.0649081 	0.110554 	0 -0.0660527 	0.10822 	0 -0.067272 	0.105887 	0 -0.0686384 	0.103293 	0 -0.0707238 	0.098884 	0 -0.0728271 	0.0943546 	0 -0.0751102 	0.0897931 	0 -0.0774065 	0.0851072 	0 -0.0787072 	0.082395 	0 -0.0790736 	0.0816216 	0 -0.07944 	0.0808453 	0 -0.0798188 	0.0800726 	0 -0.0802133 	0.0793053 	0 -0.0806355 	0.0784806 	0 -0.0828961 	0.0736742 	0 -0.0851569 	0.0687723 	0 -0.0874908 	0.0638232 	0 -0.0899041 	0.0588415 	0 -0.0914305 	0.0556219 	0 -0.0924954 	0.0533106 	0 -0.0935613 	0.0509935 	0 -0.0946878 	0.0487048 	0 -0.0958055 	0.0464082 	0 -0.0974417 	0.043008 	0 -0.0983404 	0.0410046 	0 -0.0992328 	0.0390002 	0 -0.100118 	0.0369955 	0 -0.101026 	0.0350094 	0 -0.101879 	0.0332034 	0 -0.10371 	0.0291652 	0 -0.105502 	0.0251425 	0 -0.10725 	0.0211417 	0 -0.109041 	0.0172348 	0 -0.110623 	0.0137686 	0 -0.112117 	0.0102249 	0 -0.113568 	0.00671508 	0 -0.115002 	0.00327086 	0 -0.116441 	-8.3121e-05 	0 -0.117802 	-0.00331907 	0 -0.118987 	-0.00649785 	0 -0.12013 	-0.00963842 	0 -0.121246 	-0.0127192 	0 -0.122364 	-0.0156986 	0 -0.123459 	-0.0186912 	0 -0.124348 	-0.0215955 	0 -0.125198 	-0.0244624 	0 -0.12601 	-0.0272919 	0 -0.126796 	-0.030056 	0 -0.127601 	-0.0328273 	0 -0.128064 	-0.0349529 	0 -0.128505 	-0.0370566 	0 -0.128924 	-0.0391384 	0 -0.129321 	-0.0411985 	0 -0.129527 	-0.0423115 	0 -0.129645 	-0.0430696 	0 -0.12976 	-0.043825 	0 -0.129872 	-0.0445777 	0 -0.129981 	-0.0453276 	0 -0.130089 	-0.0460874 	0 -0.130283 	-0.0487186 	0 -0.130444 	-0.0512379 	0 -0.13057 	-0.0537271 	0 -0.130662 	-0.0561862 	0 -0.130723 	-0.0587728 	0 -0.130561 	-0.061279 	0 -0.130363 	-0.0637517 	0 -0.130131 	-0.0661906 	0 -0.129866 	-0.0685959 	0 -0.129541 	-0.0711287 	0 -0.129519 	-0.0712224 	0 -0.129496 	-0.0713161 	0 -0.129474 	-0.0714097 	0 -0.129451 	-0.0715033 	0 -0.129429 	-0.0715958 	0 -0.12884 	-0.0739629 	0 -0.128218 	-0.0763022 	0 -0.127564 	-0.0786134 	0 -0.126879 	-0.0808964 	0 -0.126096 	-0.0833622 	0 -0.125439 	-0.0849511 	0 -0.124768 	-0.0865247 	0 -0.124082 	-0.0880829 	0 -0.123382 	-0.0896257 	0 -0.122778 	-0.0909157 	0 -0.122324 	-0.0918971 	0 -0.121863 	-0.0928729 	0 -0.121398 	-0.0938429 	0 -0.120926 	-0.0948073 	0 -0.120424 	-0.0958166 	0 -0.119102 	-0.0981099 	0 -0.11775 	-0.100368 	0 -0.116368 	-0.102591 	0 -0.114958 	-0.104779 	0 -0.113796 	-0.106519 	0 -0.113506 	-0.10697 	0 -0.113215 	-0.10742 	0 -0.112923 	-0.107869 	0 -0.112629 	-0.108317 	0 -0.112326 	-0.108777 	0 -0.110596 	-0.111129 	0 -0.108837 	-0.113439 	0 -0.107051 	-0.115707 	0 -0.105238 	-0.117933 	0 -0.103713 	-0.119742 	0 -0.103279 	-0.120292 	0 -0.102844 	-0.12084 	0 -0.102407 	-0.121385 	0 -0.101969 	-0.121928 	0 -0.101507 	-0.122497 	0 -0.0998578 	-0.124322 	0 -0.098194 	-0.12612 	0 -0.0965158 	-0.127888 	0 -0.0948237 	-0.129627 	0 -0.0933168 	-0.131137 	0 -0.0922076 	-0.132358 	0 -0.091093 	-0.133566 	0 -0.0899731 	-0.134761 	0 -0.088848 	-0.135943 	0 -0.0875491 	-0.137287 	0 -0.086668 	-0.13809 	0 -0.0857848 	-0.138886 	0 -0.0848996 	-0.139676 	0 -0.0840123 	-0.140459 	0 -0.0831624 	-0.141201 	0 -0.0812117 	-0.143139 	0 -0.0792523 	-0.145043 	0 -0.0772841 	-0.146912 	0 -0.0752194 	-0.148592 	0 -0.0733246 	-0.150086 	0 -0.0725835 	-0.150735 	0 -0.071841 	-0.151379 	0 -0.0710972 	-0.152017 	0 -0.0703522 	-0.152649 	0 -0.0695148 	-0.153352 	0 -0.0683617 	-0.154199 	0 -0.0672066 	-0.155035 	0 -0.0660495 	-0.15586 	0 -0.0648906 	-0.156673 	0 -0.0637715 	-0.157447 	0 -0.061995 	-0.158869 	0 -0.0602152 	-0.160262 	0 -0.0583257 	-0.161467 	0 -0.0564134 	-0.162613 	0 -0.0545876 	-0.163671 	0 -0.0528402 	-0.164806 	0 -0.0510885 	-0.16591 	0 -0.0493328 	-0.166984 	0 -0.0475734 	-0.168027 	0 -0.0458242 	-0.168936 	0 -0.0454564 	-0.169113 	0 -0.0450885 	-0.169289 	0 -0.0447203 	-0.169463 	0 -0.0443519 	-0.169636 	0 -0.0439511 	-0.169822 	0 -0.0425776 	-0.170359 	0 -0.0412016 	-0.17088 	0 -0.0398231 	-0.171385 	0 -0.0384421 	-0.171874 	0 -0.0370871 	-0.172337 	0 -0.0354921 	-0.17295 	0 -0.0337698 	-0.173406 	0 -0.0320106 	-0.1738 	0 -0.0302464 	-0.174167 	0 -0.0285123 	-0.174498 	0 -0.026899 	-0.174801 	0 -0.025282 	-0.175079 	0 -0.0235485 	-0.175236 	0 -0.0217665 	-0.175327 	0 -0.0200038 	-0.175389 	0 -0.0183574 	-0.175373 	0 -0.0167062 	-0.175331 	0 -0.0150422 	-0.175256 	0 -0.0132267 	-0.17507 	0 -0.0114216 	-0.174855 	0 -0.00972917 	-0.174515 	0 -0.00803103 	-0.174146 	0 -0.00632725 	-0.173749 	0 -0.00450834 	-0.173292 	0 -0.00264605 	-0.172793 	0 -0.000896069 	-0.172124 	0 0.000860759 	-0.171424 	0 0.00262433 	-0.170693 	0 0.00449529 	-0.169934 	0 0.0064303 	-0.169144 	0 0.00824923 	-0.16814 	0 0.0100763 	-0.167103 	0 0.0119113 	-0.166033 	0 0.0138885 	-0.164974 	0 0.0159142 	-0.163881 	0 0.0178155 	-0.162534 	0 0.0197263 	-0.161151 	0 0.0216924 	-0.159761 	0 0.0237896 	-0.158409 	0 0.0259301 	-0.156998 	0 0.027931 	-0.155298 	0 0.0299432 	-0.153559 	0 0.0321341 	-0.151928 	0 0.034347 	-0.150264 	0 0.0366363 	-0.148513 	0 0.0387594 	-0.146444 	0 0.0410582 	-0.144511 	0 0.0433985 	-0.142567 	0 0.0457541 	-0.140582 	0 0.0481934 	-0.138497 	0 0.048203 	-0.138488 	0 0.0482125 	-0.138479 	0 0.048222 	-0.13847 	0 0.0482318 	-0.138461 	0 0.048242 	-0.138453 	0 0.0506054 	-0.136144 	0 0.0529796 	-0.13379 	0 0.0553637 	-0.131391 	0 0.0578178 	-0.129042 	0 0.0606122 	-0.126647 	0 0.0631424 	-0.123942 	0 0.0656829 	-0.121194 	0 0.068427 	-0.118728 	0 0.0711847 	-0.116231 	0 0.0743344 	-0.113343 	0 0.074572 	-0.113072 	0 0.0748101 	-0.112802 	0 0.0750676 	-0.112565 	0 0.0753252 	-0.112328 	0 0.075573 	-0.112099 	0 0.0781122 	-0.109356 	0 0.0806493 	-0.10658 	0 0.0831873 	-0.103781 	0 0.0859012 	-0.101292 	0 0.0891845 	-0.098239 	0 0.0902006 	-0.0970758 	0 0.0912157 	-0.0959098 	0 0.0922803 	-0.094838 	0 0.0933744 	-0.0938226 	0 0.094337 	-0.0929263 	0 0.0964311 	-0.090513 	0 0.0985114 	-0.088086 	0 0.100654 	-0.085805 	0 0.102854 	-0.0836605 	0 0.105646 	-0.080904 	0 0.106252 	-0.080176 	0 0.106857 	-0.0794479 	0 0.107468 	-0.0787365 	0 0.108119 	-0.0781094 	0 0.108735 	-0.0775149 	0 0.111066 	-0.0745659 	0 0.113365 	-0.0716091 	0 0.115728 	-0.0688713 	0 0.118126 	-0.0662874 	0 0.120083 	-0.0641452 	0 0.120734 	-0.0631771 	0 0.121392 	-0.0622378 	0 0.122075 	-0.0613829 	0 0.122754 	-0.0605271 	0 0.12354 	-0.0595287 	0 0.124606 	-0.057931 	0 0.125661 	-0.0563342 	0 0.126706 	-0.0547384 	0 0.127787 	-0.0532761 	0 0.128821 	-0.0519851 	0 0.130192 	-0.049488 	0 0.131534 	-0.0469901 	0 0.132882 	-0.0446273 	0 0.134248 	-0.0424413 	0 0.135489 	-0.0404117 	0 0.136485 	-0.0379155 	0 0.137478 	-0.0355947 	0 0.138457 	-0.0333785 	0 0.139408 	-0.0311595 	0 0.140286 	-0.0290443 	0 0.140583 	-0.0278669 	0 0.140876 	-0.0267952 	0 0.141163 	-0.0257223 	0 0.141443 	-0.0246485 	0 0.141843 	-0.0230809 	0 0.142087 	-0.0219526 	0 0.142324 	-0.0208244 	0 0.142557 	-0.0196964 	0 0.142784 	-0.0185685 	0 0.14301 	-0.0175434 	0 0.143217 	-0.0151208 	0 0.1434 	-0.0126958 	0 0.143558 	-0.0102691 	0 0.143692 	-0.00784129 	0 0.14379 	-0.00565393 	0 0.143634 	-0.00310996 	0 0.143453 	-0.000562477 	0 0.143245 	0.00198772 	0 0.143012 	0.00453984 	0 0.14272 	0.00687695 	0 0.142192 	0.00957113 	0 0.141637 	0.0122696 	0 0.141055 	0.0149713 	0 0.140447 	0.0176753 	0 0.139777 	0.0203191 	0 0.139295 	0.0218401 	0 0.138805 	0.0233623 	0 0.138308 	0.0248857 	0 0.137803 	0.02641 	0 0.137592 	0.0270377 	0 0.137045 	0.0286091 	0 0.136488 	0.0301819 	0 0.135922 	0.031756 	0 0.135348 	0.0333311 	0 0.134749 	0.0349474 	0 0.133473 	0.0382364 	0 0.132089 	0.0413787 	0 0.130676 	0.0445257 	0 0.129237 	0.0476756 	0 0.127659 	0.0510667 	0 0.125983 	0.0546688 	0 0.124279 	0.0582631 	0 0.122548 	0.0618466 	0 0.120792 	0.0654162 	0 0.118694 	0.0693172 	0 0.118343 	0.069975 	0 0.117992 	0.0706323 	0 0.117641 	0.071289 	0 0.117289 	0.0719453 	0 0.116969 	0.0725426 	0 0.115122 	0.0759531 	0 0.113264 	0.0793489 	0 0.111397 	0.0827274 	0 0.109523 	0.0860862 	0 0.107267 	0.0900874 	0 0.106013 	0.0923407 	0 0.104758 	0.0945807 	0 0.103503 	0.0968069 	0 0.102247 	0.0990187 	0 0.101233 	0.100795 	0 0.099724 	0.10345 	0 0.0982169 	0.106082 	0 0.0967117 	0.108691 	0 0.095209 	0.111277 	0 0.0933719 	0.114415 	0 0.0923269 	0.116218 	0 0.091284 	0.118008 	0 0.0902434 	0.119786 	0 0.0892053 	0.12155 	0 0.0882723 	0.123127 	0 0.0860564 	0.126982 	0 0.0838554 	0.130773 	0 0.0816701 	0.134499 	0 0.0795013 	0.13816 	0 0.0771269 	0.141995 	0 0.0769726 	0.142241 	0 0.0768184 	0.142486 	0 0.0766643 	0.142731 	0 0.0765102 	0.142975 	0 0.0763516 	0.143226 	0 0.0744377 	0.146293 	0 0.0725324 	0.149302 	0 0.070636 	0.152253 	0 0.068749 	0.155148 	0 0.0670406 	0.157732 	0 0.0652542 	0.160612 	0 0.0634789 	0.163438 	0 0.0617149 	0.166211 	0 0.0599165 	0.168888 	0 0.0581218 	0.171245 	0 0.0573326 	0.172357 	0 0.056545 	0.173458 	0 0.0557588 	0.174549 	0 0.0549741 	0.175629 	0 0.0540414 	0.176902 	0 0.0532057 	0.178028 	0 0.0523717 	0.179142 	0 0.0515393 	0.180245 	0 0.0507087 	0.181336 	0 0.0498944 	0.182397 	0 0.0484807 	0.184458 	0 0.0468936 	0.186314 	0 0.0453052 	0.188122 	0 0.0437204 	0.189888 	0 0.0421805 	0.191566 	0 0.0408266 	0.193208 	0 0.0394765 	0.194815 	0 0.0380452 	0.196309 	0 0.0365143 	0.197674 	0 0.0350118 	0.198976 	0 0.0337038 	0.20023 	0 0.0323978 	0.201452 	0 0.0310937 	0.202641 	0 0.0297212 	0.203734 	0 0.0282562 	0.204683 	0 0.0269862 	0.205577 	0 0.0257168 	0.20644 	0 0.024448 	0.207272 	0 0.0231799 	0.208073 	0 0.0218163 	0.208745 	0 0.0205791 	0.209304 	0 0.0193414 	0.209833 	0 0.0181034 	0.210332 	0 0.0168651 	0.210801 	0 0.0156176 	0.211225 	0 0.0153126 	0.211287 	0 0.0150074 	0.211347 	0 0.0147022 	0.211405 	0 0.0143969 	0.211461 	0 0.0140262 	0.211527 	0 0.0131361 	0.211672 	0 0.0122453 	0.211801 	0 0.0113538 	0.211915 	0 0.0104618 	0.212014 	0 0.00957135 	0.212097 	0 0.00842176 	0.212071 	0 0.00723661 	0.211987 	0 0.00604959 	0.211875 	0 0.00486073 	0.211735 	0 0.00367248 	0.211566 	0 0.00256181 	0.211281 	0 0.00139402 	0.21092 	0 0.000223769 	0.210531 	0 -0.000948923 	0.210113 	0 -0.00212345 	0.209666 	0 -0.00322645 	0.209107 	0 -0.00438701 	0.208477 	0 -0.00555063 	0.207817 	0 -0.00671729 	0.207127 	0 -0.00788819 	0.206406 	0 -0.00901286 	0.205561 	0 -0.0101794 	0.20466 	0 -0.0113497 	0.203727 	0 -0.0125237 	0.202762 	0 -0.0137048 	0.201763 	0 -0.01391 	0.20156 	0 -0.0141226 	0.201353 	0 -0.0143353 	0.201145 	0 -0.0145482 	0.200935 	0 -0.0147287 	0.200756 	0 -0.015703 	0.199784 	0 -0.0166802 	0.198788 	0 -0.0176603 	0.197769 	0 -0.0186431 	0.196726 	0 -0.0196678 	0.195647 	0 -0.0208702 	0.194211 	0 -0.0220775 	0.192739 	0 -0.0232898 	0.191229 	0 -0.0245072 	0.189681 	0 -0.0258291 	0.188073 	0 -0.0270691 	0.18633 	0 -0.0283151 	0.184545 	0 -0.0295673 	0.182718 	0 -0.0308751 	0.18085 	0 -0.0322696 	0.178914 	0 -0.0335603 	0.176832 	0 -0.0348586 	0.174702 	0 -0.0361892 	0.172526 	0 -0.0376207 	0.170312 	0 -0.0390883 	0.168001 	0 -0.0404464 	0.165531 	0 -0.0418304 	0.163008 	0 -0.0433324 	0.160451 	0 -0.0448459 	0.157831 	0 -0.0464164 	0.155065 	0 -0.047406 	0.153061 	0 -0.0484787 	0.15105 	0 -0.0495718 	0.149008 	0 -0.0506718 	0.14693 	0 -0.0514524 	0.145439 	0 -0.0520314 	0.144327 	0 -0.052612 	0.143205 	0 -0.0531943 	0.142073 	0 -0.0537935 	0.140938 	0 -0.0544408 	0.139783 	0 -0.0561041 	0.136438 	0 -0.0577828 	0.133009 	0 -0.059477 	0.129493 	0 -0.0613151 	0.125953 	0 -0.0633447 	0.122012 	0 -0.0648786 	0.118629 	0 -0.0664648 	0.115191 	0 -0.0681572 	0.111725 	0 -0.0698644 	0.108178 	0 -0.0709521 	0.105885 	0 -0.0714821 	0.104762 	0 -0.0720132 	0.103631 	0 -0.0725457 	0.102493 	0 -0.073121 	0.10137 	0 -0.0737317 	0.100172 	0 -0.0759693 	0.0953036 	0 -0.078227 	0.0903077 	0 -0.0806139 	0.0852458 	0 -0.0830821 	0.0800937 	0 -0.0857345 	0.0744493 	0 -0.0858877 	0.0741156 	0 -0.0860408 	0.0737815 	0 -0.0862017 	0.0734511 	0 -0.0863662 	0.0731223 	0 -0.0865368 	0.072781 	0 -0.0888797 	0.0676864 	0 -0.0912216 	0.0625122 	0 -0.0936015 	0.0572941 	0 -0.0960877 	0.0520866 	0 -0.0977355 	0.0485737 	0 -0.0991962 	0.0453719 	0 -0.100675 	0.0421832 	0 -0.102201 	0.0390306 	0 -0.10371 	0.035877 	0 -0.106537 	0.0298903 	0 -0.106804 	0.0292863 	0 -0.107071 	0.0286828 	0 -0.107337 	0.0280798 	0 -0.107603 	0.0274782 	0 -0.107879 	0.0268973 	0 -0.109658 	0.0230149 	0 -0.111402 	0.0191604 	0 -0.113109 	0.0153384 	0 -0.114779 	0.0115539 	0 -0.116374 	0.00814655 	0 -0.117854 	0.00475132 	0 -0.119295 	0.00139428 	0 -0.120699 	-0.00192303 	0 -0.122077 	-0.00518386 	0 -0.123457 	-0.00830882 	0 -0.124656 	-0.0113386 	0 -0.12582 	-0.0143301 	0 -0.126948 	-0.017283 	0 -0.128042 	-0.0201974 	0 -0.129156 	-0.0230793 	0 -0.129735 	-0.0248012 	0 -0.130301 	-0.0265092 	0 -0.130855 	-0.0282035 	0 -0.131396 	-0.0298841 	0 -0.131649 	-0.0306794 	0 -0.131999 	-0.0318756 	0 -0.132342 	-0.0330654 	0 -0.132678 	-0.0342488 	0 -0.133007 	-0.0354259 	0 -0.133336 	-0.0366195 	0 -0.133896 	-0.0392557 	0 -0.134434 	-0.0417769 	0 -0.13494 	-0.0442693 	0 -0.135414 	-0.046733 	0 -0.135879 	-0.0492897 	0 -0.136118 	-0.0517652 	0 -0.136325 	-0.0542099 	0 -0.136502 	-0.0566241 	0 -0.136645 	-0.058942 	0 -0.136764 	-0.0613151 	0 -0.136717 	-0.0622454 	0 -0.136665 	-0.0631711 	0 -0.136609 	-0.0640922 	0 -0.136548 	-0.0650089 	0 -0.136491 	-0.0658104 	0 -0.136347 	-0.0672452 	0 -0.136191 	-0.0686702 	0 -0.136024 	-0.0700853 	0 -0.135846 	-0.0714906 	0 -0.135649 	-0.0729481 	0 -0.135109 	-0.0753101 	0 -0.134538 	-0.0776421 	0 -0.133937 	-0.079944 	0 -0.133292 	-0.082164 	0 -0.132545 	-0.0844845 	0 -0.132368 	-0.0848903 	0 -0.13219 	-0.0852952 	0 -0.132011 	-0.0856993 	0 -0.131831 	-0.0861024 	0 -0.131658 	-0.0864874 	0 -0.130806 	-0.0884138 	0 -0.129934 	-0.0903227 	0 -0.129042 	-0.0922141 	0 -0.12813 	-0.0940875 	0 -0.127113 	-0.0961131 	0 -0.126299 	-0.0974465 	0 -0.125476 	-0.0987696 	0 -0.124643 	-0.100082 	0 -0.123801 	-0.101385 	0 -0.123052 	-0.102521 	0 -0.122337 	-0.103659 	0 -0.121616 	-0.104792 	0 -0.120889 	-0.105917 	0 -0.120155 	-0.107035 	0 -0.119362 	-0.108226 	0 -0.118075 	-0.109898 	0 -0.116775 	-0.111553 	0 -0.115461 	-0.11319 	0 -0.114134 	-0.11481 	0 -0.112973 	-0.116198 	0 -0.112216 	-0.117177 	0 -0.111454 	-0.118151 	0 -0.110688 	-0.119119 	0 -0.109919 	-0.120081 	0 -0.109083 	-0.121116 	0 -0.107727 	-0.122583 	0 -0.106362 	-0.124035 	0 -0.104989 	-0.125474 	0 -0.103608 	-0.126897 	0 -0.102362 	-0.128161 	0 -0.101141 	-0.12954 	0 -0.0999142 	-0.130906 	0 -0.0986817 	-0.132261 	0 -0.0974438 	-0.133604 	0 -0.0960174 	-0.135132 	0 -0.0951863 	-0.135898 	0 -0.0943538 	-0.13666 	0 -0.0935199 	-0.137418 	0 -0.0926847 	-0.138172 	0 -0.091887 	-0.138887 	0 -0.0898621 	-0.140972 	0 -0.0878308 	-0.143032 	0 -0.0857936 	-0.145064 	0 -0.0837098 	-0.146996 	0 -0.081788 	-0.14862 	0 -0.0813668 	-0.149022 	0 -0.0809452 	-0.149423 	0 -0.0805232 	-0.149822 	0 -0.0801009 	-0.150219 	0 -0.0796522 	-0.15064 	0 -0.0780914 	-0.1519 	0 -0.076528 	-0.153143 	0 -0.0749623 	-0.154371 	0 -0.0733945 	-0.155582 	0 -0.0719146 	-0.156709 	0 -0.070096 	-0.158333 	0 -0.0682759 	-0.159934 	0 -0.0664548 	-0.161511 	0 -0.0645604 	-0.162947 	0 -0.0627153 	-0.164185 	0 -0.0618678 	-0.16484 	0 -0.0610195 	-0.165489 	0 -0.0601707 	-0.166132 	0 -0.0593212 	-0.166768 	0 -0.0583334 	-0.1675 	0 -0.0574307 	-0.168055 	0 -0.0565279 	-0.168604 	0 -0.0556249 	-0.169149 	0 -0.0547217 	-0.169688 	0 -0.0538361 	-0.170212 	0 -0.0522261 	-0.17137 	0 -0.0504913 	-0.172333 	0 -0.0487168 	-0.173222 	0 -0.0469399 	-0.174086 	0 -0.0452171 	-0.174901 	0 -0.0436255 	-0.175785 	0 -0.0420326 	-0.176648 	0 -0.0404386 	-0.177491 	0 -0.0386877 	-0.178115 	0 -0.0369645 	-0.178688 	0 -0.03537 	-0.179281 	0 -0.0337729 	-0.179851 	0 -0.0321735 	-0.180399 	0 -0.0305719 	-0.180924 	0 -0.0288859 	-0.181298 	0 -0.0277467 	-0.181504 	0 -0.0266058 	-0.181698 	0 -0.0254631 	-0.18188 	0 -0.0243187 	-0.18205 	0 -0.0226331 	-0.182281 	0 -0.0222672 	-0.182306 	0 -0.0219011 	-0.18233 	0 -0.0215349 	-0.182352 	0 -0.0211685 	-0.182374 	0 -0.0208028 	-0.182395 	0 -0.0191931 	-0.18233 	0 -0.0175476 	-0.182219 	0 -0.0158972 	-0.182088 	0 -0.014242 	-0.181937 	0 -0.0125968 	-0.181767 	0 -0.0110465 	-0.181483 	0 -0.0093569 	-0.181091 	0 -0.00766095 	-0.180678 	0 -0.00595873 	-0.180243 	0 -0.00425878 	-0.179788 	0 -0.0026983 	-0.179203 	0 -0.000950021 	-0.178524 	0 0.000806251 	-0.177821 	0 0.00257045 	-0.177095 	0 0.00434094 	-0.176345 	0 0.00597469 	-0.175421 	0 0.00779634 	-0.174447 	0 0.00962788 	-0.173448 	0 0.0114693 	-0.172423 	0 0.013328 	-0.171367 	0 0.0150985 	-0.170103 	0 0.0170106 	-0.168827 	0 0.0189348 	-0.167525 	0 0.0208712 	-0.166194 	0 0.0228413 	-0.164819 	0 0.0232967 	-0.164431 	0 0.0237847 	-0.164052 	0 0.0242736 	-0.163671 	0 0.0247633 	-0.163289 	0 0.0251515 	-0.162985 	0 0.0266786 	-0.161703 	0 0.0282123 	-0.1604 	0 0.0297525 	-0.159075 	0 0.0312992 	-0.157729 	0 0.0329806 	-0.156422 	0 0.0350585 	-0.154451 	0 0.0371497 	-0.152443 	0 0.039254 	-0.150397 	0 0.0414597 	-0.148408 	0 0.0438659 	-0.146416 	0 0.0460742 	-0.144084 	0 0.0482982 	-0.141714 	0 0.0506647 	-0.139467 	0 0.0531228 	-0.137277 	0 0.0557576 	-0.134905 	0 0.0573544 	-0.133082 	0 0.0590398 	-0.131356 	0 0.0608024 	-0.129712 	0 0.062574 	-0.128052 	0 0.0637812 	-0.126916 	0 0.0647521 	-0.125869 	0 0.0657243 	-0.124815 	0 0.0666979 	-0.123756 	0 0.0677249 	-0.122777 	0 0.0688303 	-0.121785 	0 0.0714584 	-0.118844 	0 0.0740982 	-0.115868 	0 0.0768485 	-0.113033 	0 0.0797273 	-0.110376 	0 0.0831302 	-0.107211 	0 0.0837184 	-0.106525 	0 0.084307 	-0.105837 	0 0.0849385