# vtk DataFile Version 2.0
track0
ASCII
DATASET POLYDATA
POINTS 954 float
1.11022e-18 0.5 1.11022e-18
0.391304 0.5 1.11022e-18
0.393043 0.499276 1.11022e-18
0.394778 0.498539 1.11022e-18
0.396506 0.49779 1.11022e-18
0.39823 0.497029 1.11022e-18
0.4 0.496232 1.11022e-18
0.402 0.495313 1.11022e-18
0.403992 0.494377 1.11022e-18
0.405976 0.493423 1.11022e-18
0.407952 0.492453 1.11022e-18
0.41 0.491424 1.11022e-18
0.410553 0.491139 1.11022e-18
0.411106 0.490853 1.11022e-18
0.411658 0.490565 1.11022e-18
0.412209 0.490276 1.11022e-18
0.412733 0.49 1.11022e-18
0.414187 0.489229 1.11022e-18
0.415635 0.488448 1.11022e-18
0.417077 0.487657 1.11022e-18
0.418514 0.486856 1.11022e-18
0.42 0.486014 1.11022e-18
0.422 0.48486 1.11022e-18
0.423989 0.483686 1.11022e-18
0.425965 0.482493 1.11022e-18
0.42793 0.48128 1.11022e-18
0.429954 0.48 1.11022e-18
0.429963 0.479994 1.11022e-18
0.429972 0.479988 1.11022e-18
0.429981 0.479982 1.11022e-18
0.429991 0.479976 1.11022e-18
0.43 0.47997 1.11022e-18
0.432 0.478674 1.11022e-18
0.433986 0.477357 1.11022e-18
0.435957 0.476018 1.11022e-18
0.437914 0.474657 1.11022e-18
0.44 0.473172 1.11022e-18
0.440868 0.472538 1.11022e-18
0.441733 0.471899 1.11022e-18
0.442595 0.471256 1.11022e-18
0.443454 0.470609 1.11022e-18
0.444253 0.47 1.11022e-18
0.445402 0.469115 1.11022e-18
0.446545 0.468223 1.11022e-18
0.447682 0.467322 1.11022e-18
0.448813 0.466414 1.11022e-18
0.45 0.465446 1.11022e-18
0.451316 0.464357 1.11022e-18
0.452623 0.463257 1.11022e-18
0.45392 0.462146 1.11022e-18
0.455209 0.461025 1.11022e-18
0.456367 0.46 1.11022e-18
0.457094 0.459347 1.11022e-18
0.457817 0.458691 1.11022e-18
0.458537 0.458031 1.11022e-18
0.459254 0.457367 1.11022e-18
0.46 0.456671 1.11022e-18
0.461414 0.455337 1.11022e-18
0.462814 0.453989 1.11022e-18
0.464202 0.452629 1.11022e-18
0.465578 0.451255 1.11022e-18
0.46681 0.45 1.11022e-18
0.467448 0.449339 1.11022e-18
0.468083 0.448675 1.11022e-18
0.468715 0.448008 1.11022e-18
0.469344 0.447339 1.11022e-18
0.47 0.446634 1.11022e-18
0.471223 0.445307 1.11022e-18
0.472434 0.44397 1.11022e-18
0.473634 0.442622 1.11022e-18
0.474822 0.441263 1.11022e-18
0.475908 0.44 1.11022e-18
0.476726 0.439032 1.11022e-18
0.477539 0.438059 1.11022e-18
0.478345 0.437081 1.11022e-18
0.479146 0.436098 1.11022e-18
0.48 0.435036 1.11022e-18
0.480799 0.434029 1.11022e-18
0.481592 0.433017 1.11022e-18
0.482379 0.432 1.11022e-18
0.48316 0.430979 1.11022e-18
0.483899 0.43 1.11022e-18
0.485119 0.428365 1.11022e-18
0.486324 0.426718 1.11022e-18
0.487513 0.42506 1.11022e-18
0.488686 0.42339 1.11022e-18
0.49 0.421482 1.11022e-18
0.4902 0.421186 1.11022e-18
0.490399 0.420889 1.11022e-18
0.490597 0.420592 1.11022e-18
0.490796 0.420295 1.11022e-18
0.490991 0.42 1.11022e-18
0.492315 0.418 1.11022e-18
0.493618 0.415986 1.11022e-18
0.494899 0.413958 1.11022e-18
0.496159 0.411917 1.11022e-18
0.497315 0.41 1.11022e-18
0.497852 0.40909 1.11022e-18
0.498385 0.408178 1.11022e-18
0.498914 0.407263 1.11022e-18
0.499438 0.406346 1.11022e-18
0.5 0.405354 1.11022e-18
0.500599 0.404283 1.11022e-18
0.501194 0.403209 1.11022e-18
0.501782 0.402133 1.11022e-18
0.502366 0.401053 1.11022e-18
0.502928 0.4 1.11022e-18
0.503984 0.398 1.11022e-18
0.505021 0.39599 1.11022e-18
0.506041 0.393972 1.11022e-18
0.507042 0.391944 1.11022e-18
0.507981 0.39 1.11022e-18
0.508385 0.389147 1.11022e-18
0.508786 0.388292 1.11022e-18
0.509183 0.387436 1.11022e-18
0.509578 0.386578 1.11022e-18
0.51 0.385652 1.11022e-18
0.51051 0.384521 1.11022e-18
0.511015 0.383389 1.11022e-18
0.511514 0.382254 1.11022e-18
0.512009 0.381117 1.11022e-18
0.512489 0.38 1.11022e-18
0.513339 0.378 1.11022e-18
0.514173 0.375993 1.11022e-18
0.514991 0.373981 1.11022e-18
0.515794 0.371962 1.11022e-18
0.516558 0.37 1.11022e-18
0.517247 0.368195 1.11022e-18
0.517923 0.366386 1.11022e-18
0.518588 0.364573 1.11022e-18
0.519241 0.362755 1.11022e-18
0.52 0.360601 1.11022e-18
0.520041 0.360481 1.11022e-18
0.520083 0.360361 1.11022e-18
0.520124 0.360241 1.11022e-18
0.520165 0.36012 1.11022e-18
0.520207 0.36 1.11022e-18
0.520891 0.358 1.11022e-18
0.521562 0.355995 1.11022e-18
0.522219 0.353987 1.11022e-18
0.522864 0.351973 1.11022e-18
0.523482 0.35 1.11022e-18
0.524095 0.348 1.11022e-18
0.524695 0.345996 1.11022e-18
0.525283 0.343989 1.11022e-18
0.525859 0.341977 1.11022e-18
0.526413 0.34 1.11022e-18
0.526961 0.338 1.11022e-18
0.527496 0.335997 1.11022e-18
0.52802 0.33399 1.11022e-18
0.528533 0.331981 1.11022e-18
0.529027 0.33 1.11022e-18
0.529221 0.3292 1.11022e-18
0.529414 0.3284 1.11022e-18
0.529605 0.3276 1.11022e-18
0.529794 0.326799 1.11022e-18
0.53 0.325921 1.11022e-18
0.530274 0.324737 1.11022e-18
0.530545 0.323552 1.11022e-18
0.530811 0.322366 1.11022e-18
0.531074 0.321179 1.11022e-18
0.531332 0.32 1.11022e-18
0.531763 0.318 1.11022e-18
0.532183 0.315998 1.11022e-18
0.532592 0.313993 1.11022e-18
0.532992 0.311987 1.11022e-18
0.533377 0.31 1.11022e-18
0.533755 0.308 1.11022e-18
0.534122 0.305998 1.11022e-18
0.53448 0.303994 1.11022e-18
0.534828 0.301989 1.11022e-18
0.535163 0.3 1.11022e-18
0.535491 0.298 1.11022e-18
0.535809 0.295998 1.11022e-18
0.536118 0.293995 1.11022e-18
0.536417 0.291991 1.11022e-18
0.536705 0.29 1.11022e-18
0.536985 0.288 1.11022e-18
0.537256 0.285999 1.11022e-18
0.537518 0.283996 1.11022e-18
0.537771 0.281992 1.11022e-18
0.538013 0.28 1.11022e-18
0.538248 0.278 1.11022e-18
0.538474 0.275999 1.11022e-18
0.538691 0.273997 1.11022e-18
0.5389 0.271994 1.11022e-18
0.539099 0.27 1.11022e-18
0.539279 0.268115 1.11022e-18
0.539451 0.266229 1.11022e-18
0.539617 0.264342 1.11022e-18
0.539774 0.262455 1.11022e-18
0.53997 0.26 1.11022e-18
0.539976 0.259919 1.11022e-18
0.539982 0.259838 1.11022e-18
0.539988 0.259758 1.11022e-18
0.539994 0.259677 1.11022e-18
0.54 0.259594 1.11022e-18
0.540142 0.257676 1.11022e-18
0.540276 0.255756 1.11022e-18
0.540402 0.253836 1.11022e-18
0.540522 0.251916 1.11022e-18
0.540633 0.25 1.11022e-18
0.540742 0.248 1.11022e-18
0.540843 0.246 1.11022e-18
0.540937 0.243999 1.11022e-18
0.541022 0.241998 1.11022e-18
0.5411 0.24 1.11022e-18
0.54117 0.238 1.11022e-18
0.541233 0.236 1.11022e-18
0.541288 0.233999 1.11022e-18
0.541335 0.231999 1.11022e-18
0.541375 0.23 1.11022e-18
0.541408 0.228 1.11022e-18
0.541434 0.226 1.11022e-18
0.541452 0.224 1.11022e-18
0.541463 0.221999 1.11022e-18
0.541467 0.22 1.11022e-18
0.541464 0.218 1.11022e-18
0.541455 0.216 1.11022e-18
0.541438 0.214 1.11022e-18
0.541414 0.212 1.11022e-18
0.541384 0.21 1.11022e-18
0.541347 0.208 1.11022e-18
0.541303 0.206 1.11022e-18
0.541253 0.204 1.11022e-18
0.541197 0.202001 1.11022e-18
0.541134 0.2 1.11022e-18
0.541065 0.198 1.11022e-18
0.54099 0.196 1.11022e-18
0.540908 0.194001 1.11022e-18
0.540821 0.192001 1.11022e-18
0.540728 0.19 1.11022e-18
0.540628 0.188 1.11022e-18
0.540524 0.186 1.11022e-18
0.540414 0.184001 1.11022e-18
0.540298 0.182002 1.11022e-18
0.540177 0.18 1.11022e-18
0.540141 0.179443 1.11022e-18
0.540106 0.178886 1.11022e-18
0.54007 0.178329 1.11022e-18
0.540033 0.177772 1.11022e-18
0.54 0.177272 1.11022e-18
0.539903 0.175818 1.11022e-18
0.539803 0.174363 1.11022e-18
0.539701 0.172909 1.11022e-18
0.539596 0.171455 1.11022e-18
0.539488 0.17 1.11022e-18
0.539337 0.168 1.11022e-18
0.53918 0.166 1.11022e-18
0.539019 0.164001 1.11022e-18
0.538854 0.162002 1.11022e-18
0.538685 0.16 1.11022e-18
0.538511 0.158 1.11022e-18
0.538332 0.156 1.11022e-18
0.53815 0.154001 1.11022e-18
0.537964 0.152002 1.11022e-18
0.537774 0.15 1.11022e-18
0.53758 0.148 1.11022e-18
0.537382 0.146 1.11022e-18
0.537181 0.144001 1.11022e-18
0.536977 0.142002 1.11022e-18
0.536769 0.14 1.11022e-18
0.536559 0.138 1.11022e-18
0.536344 0.136 1.11022e-18
0.536126 0.134001 1.11022e-18
0.535906 0.132002 1.11022e-18
0.535683 0.13 1.11022e-18
0.535458 0.128 1.11022e-18
0.535229 0.126 1.11022e-18
0.534997 0.124001 1.11022e-18
0.534762 0.122002 1.11022e-18
0.534526 0.12 1.11022e-18
0.534288 0.118 1.11022e-18
0.534046 0.116 1.11022e-18
0.533802 0.114001 1.11022e-18
0.533554 0.112002 1.11022e-18
0.533304 0.11 1.11022e-18
0.533053 0.108 1.11022e-18
0.532799 0.106 1.11022e-18
0.532541 0.104001 1.11022e-18
0.53228 0.102003 1.11022e-18
0.532015 0.1 1.11022e-18
0.531749 0.098 1.11022e-18
0.531479 0.0960006 1.11022e-18
0.531205 0.0940017 1.11022e-18
0.530926 0.0920036 1.11022e-18
0.530641 0.09 1.11022e-18
0.530513 0.0891101 1.11022e-18
0.530383 0.0882205 1.11022e-18
0.530252 0.087331 1.11022e-18
0.53012 0.0864417 1.11022e-18
0.53 0.0856431 1.11022e-18
0.529829 0.0845145 1.11022e-18
0.529654 0.0833863 1.11022e-18
0.529477 0.0822585 1.11022e-18
0.529298 0.0811312 1.11022e-18
0.529114 0.08 1.11022e-18
0.528784 0.078 1.11022e-18
0.528437 0.0760027 1.11022e-18
0.528076 0.0740081 1.11022e-18
0.527698 0.0720165 1.11022e-18
0.527298 0.07 1.11022e-18
0.526882 0.068 1.11022e-18
0.526435 0.0660067 1.11022e-18
0.525956 0.0640208 1.11022e-18
0.525447 0.0620427 1.11022e-18
0.524883 0.06 1.11022e-18
0.524291 0.058 1.11022e-18
0.523645 0.0560168 1.11022e-18
0.52294 0.0540534 1.11022e-18
0.522175 0.0521131 1.11022e-18
0.521257 0.05 1.11022e-18
0.521006 0.0494765 1.11022e-18
0.520748 0.048956 1.11022e-18
0.520485 0.0484386 1.11022e-18
0.520215 0.0479243 1.11022e-18
0.52 0.0475263 1.11022e-18
0.519168 0.046021 1.11022e-18
0.518279 0.0445495 1.11022e-18
0.51733 0.0431154 1.11022e-18
0.516321 0.0417224 1.11022e-18
0.514957 0.04 1.11022e-18
0.513966 0.038882 1.11022e-18
0.512935 0.0378006 1.11022e-18
0.511865 0.0367573 1.11022e-18
0.510758 0.0357529 1.11022e-18
0.51 0.0351118 1.11022e-18
0.508733 0.0340894 1.11022e-18
0.507428 0.0331156 1.11022e-18
0.506089 0.0321899 1.11022e-18
0.504718 0.0313114 1.11022e-18
0.502515 0.03 1.11022e-18
0.502012 0.0297329 1.11022e-18
0.501507 0.0294699 1.11022e-18
0.501 0.029211 1.11022e-18
0.50049 0.0289561 1.11022e-18
0.5 0.0287156 1.11022e-18
0.498 0.0277526 1.11022e-18
0.495973 0.0268469 1.11022e-18
0.493923 0.0259966 1.11022e-18
0.491851 0.025199 1.11022e-18
0.49 0.0245362 1.11022e-18
0.488 0.023864 1.11022e-18
0.485988 0.0232302 1.11022e-18
0.483964 0.0226325 1.11022e-18
[...]
POINT_DATA 954
 FIELD attributes 1
U 3 954 float
-2.41136e-21 	-3.36099e-20 	0
-0.000636157 	0.000265001 	0 -0.000632312 	0.000268582 	0 -0.000628492 	0.00027219 	0 -0.000624697 	0.000275824 	0 -0.00062079 	0.000279546 	0 -0.000616637 	0.000283478 	0 -0.000612094 	0.000287641 	0 -0.000607587 	0.000291842 	0 -0.000602839 	0.000296186 	0 -0.000598087 	0.000300586 	0 -0.000593178 	0.00030521 	0 -0.000591895 	0.000306395 	0 -0.000590589 	0.000307592 	0 -0.000589227 	0.000308811 	0 -0.000587867 	0.000310033 	0 -0.000586576 	0.0003112 	0 -0.000583092 	0.0003145 	0 -0.00057963 	0.000317824 	0 -0.000576192 	0.000321171 	0 -0.000572598 	0.000324582 	0 -0.000568827 	0.000328163 	0 -0.000563932 	0.000332779 	0 -0.000559053 	0.000337446 	0 -0.000553935 	0.000342209 	0 -0.000548865 	0.000347021 	0 -0.000543658 	0.000352062 	0 -0.000543635 	0.000352086 	0 -0.000543612 	0.00035211 	0 -0.000543588 	0.000352134 	0 -0.000543564 	0.000352158 	0 -0.000543539 	0.000352182 	0 -0.000538391 	0.000357155 	0 -0.000533297 	0.000362182 	0 -0.000528257 	0.000367263 	0 -0.00052296 	0.000372402 	0 -0.000517323 	0.000377983 	0 -0.000515066 	0.000380269 	0 -0.000512821 	0.000382565 	0 -0.000510469 	0.000384866 	0 -0.000508115 	0.000387178 	0 -0.000505928 	0.000389346 	0 -0.000502845 	0.000392569 	0 -0.000499783 	0.000395813 	0 -0.000496712 	0.000399072 	0 -0.00049351 	0.000402329 	0 -0.000490154 	0.00040579 	0 -0.000486576 	0.000409572 	0 -0.000483029 	0.000413383 	0 -0.000479368 	0.000417188 	0 -0.000475686 	0.000421011 	0 -0.000472381 	0.000424497 	0 -0.000470343 	0.000426774 	0 -0.000468315 	0.000429061 	0 -0.000466255 	0.000431342 	0 -0.000464133 	0.000433608 	0 -0.000461928 	0.000435985 	0 -0.000457907 	0.000440449 	0 -0.000453928 	0.00044495 	0 -0.000449873 	0.000449436 	0 -0.000445774 	0.000453922 	0 -0.000442105 	0.000458013 	0 -0.000440225 	0.000460228 	0 -0.000438356 	0.000462451 	0 -0.000436443 	0.000464653 	0 -0.000434495 	0.000466839 	0 -0.000432464 	0.000469139 	0 -0.000428819 	0.000473416 	0 -0.000425211 	0.000477723 	0 -0.000421574 	0.000482016 	0 -0.000417873 	0.000486272 	0 -0.000414492 	0.000490229 	0 -0.000411952 	0.00049335 	0 -0.00040943 	0.000496486 	0 -0.000406845 	0.000499569 	0 -0.000404245 	0.000502639 	0 -0.00040147 	0.000505956 	0 -0.000398966 	0.000509084 	0 -0.000396482 	0.000512227 	0 -0.000393995 	0.000515363 	0 -0.000391447 	0.000518436 	0 -0.000389036 	0.000521379 	0 -0.000385031 	0.000526448 	0 -0.000381075 	0.000531553 	0 -0.000377035 	0.000536536 	0 -0.000373023 	0.000541528 	0 -0.000368524 	0.000547236 	0 -0.000367862 	0.000548123 	0 -0.000367203 	0.000549011 	0 -0.000366544 	0.000549899 	0 -0.000365864 	0.000550757 	0 -0.000365194 	0.000551607 	0 -0.000360587 	0.000557552 	0 -0.000356045 	0.000563542 	0 -0.00035153 	0.000569507 	0 -0.00034698 	0.000575342 	0 -0.000342795 	0.000580827 	0 -0.000340804 	0.000583513 	0 -0.000338818 	0.00058619 	0 -0.000336797 	0.000588772 	0 -0.00033479 	0.000591362 	0 -0.000332636 	0.000594167 	0 -0.000330404 	0.000597213 	0 -0.000328187 	0.00060027 	0 -0.000325987 	0.000603337 	0 -0.000323765 	0.000606306 	0 -0.00032161 	0.000609176 	0 -0.000317423 	0.000614787 	0 -0.000313289 	0.000620433 	0 -0.000309162 	0.000625923 	0 -0.000305066 	0.000631358 	0 -0.000301206 	0.000636577 	0 -0.00029947 	0.000638937 	0 -0.000297735 	0.000641253 	0 -0.000295997 	0.000643498 	0 -0.000294267 	0.000645748 	0 -0.000292411 	0.000648182 	0 -0.000290221 	0.000651186 	0 -0.000288045 	0.000654198 	0 -0.000285884 	0.000657219 	0 -0.00028373 	0.00066016 	0 -0.000281629 	0.000662981 	0 -0.000277699 	0.000668164 	0 -0.000273813 	0.000673374 	0 -0.000269971 	0.000678502 	0 -0.000266173 	0.00068346 	0 -0.000262534 	0.000688288 	0 -0.000259027 	0.000692846 	0 -0.000255566 	0.000697245 	0 -0.000252146 	0.000701554 	0 -0.000248759 	0.000705882 	0 -0.000244791 	0.000711023 	0 -0.000244577 	0.000711315 	0 -0.000244363 	0.000711607 	0 -0.000244149 	0.000711899 	0 -0.000243935 	0.000712186 	0 -0.000243725 	0.000712459 	0 -0.000239965 	0.000717089 	0 -0.000236242 	0.000721741 	0 -0.000232554 	0.000726416 	0 -0.000228924 	0.000731002 	0 -0.000225452 	0.000735297 	0 -0.000221689 	0.000739733 	0 -0.000217959 	0.00074419 	0 -0.00021431 	0.000748497 	0 -0.000210739 	0.000752654 	0 -0.000207264 	0.000756755 	0 -0.000203476 	0.000760969 	0 -0.000199789 	0.000764995 	0 -0.000196181 	0.000768896 	0 -0.000192602 	0.000772817 	0 -0.000189108 	0.000776697 	0 -0.000187578 	0.000778279 	0 -0.000186109 	0.000779721 	0 -0.000184645 	0.000781167 	0 -0.000183185 	0.000782616 	0 -0.00018159 	0.000784207 	0 -0.000179471 	0.000786392 	0 -0.000177361 	0.000788584 	0 -0.000175261 	0.000790782 	0 -0.000173169 	0.000792986 	0 -0.000171189 	0.000794983 	0 -0.00016751 	0.000798352 	0 -0.000163856 	0.00080174 	0 -0.000160228 	0.000805146 	0 -0.000156701 	0.000808414 	0 -0.00015334 	0.000811449 	0 -0.000149621 	0.000814497 	0 -0.000145925 	0.000817563 	0 -0.000142295 	0.000820568 	0 -0.000138851 	0.000823289 	0 -0.00013546 	0.000826002 	0 -0.0001317 	0.000828698 	0 -0.000127962 	0.000831414 	0 -0.000124457 	0.000833791 	0 -0.000120991 	0.000836156 	0 -0.00011757 	0.000838521 	0 -0.000113775 	0.000840837 	0 -0.000110141 	0.000842956 	0 -0.00010664 	0.000844921 	0 -0.000103156 	0.000846904 	0 -9.97126e-05 	0.000848895 	0 -9.59254e-05 	0.000850758 	0 -9.24027e-05 	0.000852297 	0 -8.8897e-05 	0.000853856 	0 -8.54083e-05 	0.000855434 	0 -8.19536e-05 	0.000857024 	0 -7.85087e-05 	0.000858207 	0 -7.52012e-05 	0.000859251 	0 -7.19077e-05 	0.000860313 	0 -6.86281e-05 	0.000861393 	0 -6.43814e-05 	0.000862822 	0 -6.42362e-05 	0.000862852 	0 -6.40956e-05 	0.000862878 	0 -6.3955e-05 	0.000862904 	0 -6.38143e-05 	0.00086293 	0 -6.36706e-05 	0.000862956 	0 -6.03359e-05 	0.000863576 	0 -5.70141e-05 	0.000864215 	0 -5.37052e-05 	0.000864874 	0 -5.04092e-05 	0.000865551 	0 -4.72279e-05 	0.000866118 	0 -4.38153e-05 	0.000866282 	0 -4.04153e-05 	0.000866467 	0 -3.70279e-05 	0.000866674 	0 -3.36533e-05 	0.000866902 	0 -3.04709e-05 	0.000866931 	0 -2.71602e-05 	0.000866599 	0 -2.38608e-05 	0.00086629 	0 -2.05727e-05 	0.000866002 	0 -1.72959e-05 	0.000865736 	0 -1.42645e-05 	0.000865223 	0 -1.10969e-05 	0.00086438 	0 -7.93905e-06 	0.000863559 	0 -4.79108e-06 	0.000862762 	0 -1.65298e-06 	0.000861986 	0 1.2131e-06 	0.000860956 	0 4.19251e-06 	0.000859588 	0 7.16364e-06 	0.000858242 	0 1.01264e-05 	0.00085692 	0 1.30809e-05 	0.00085562 	0 1.57669e-05 	0.000854095 	0 1.85101e-05 	0.000852188 	0 2.12467e-05 	0.000850305 	0 2.39765e-05 	0.000848443 	0 2.66996e-05 	0.000846605 	0 2.91913e-05 	0.000844601 	0 3.16495e-05 	0.000842143 	0 3.41027e-05 	0.000839706 	0 3.65507e-05 	0.000837292 	0 3.89935e-05 	0.0008349 	0 4.12794e-05 	0.000832422 	0 4.34049e-05 	0.000829396 	0 4.55269e-05 	0.000826392 	0 4.76453e-05 	0.000823409 	0 4.97601e-05 	0.000820447 	0 5.18344e-05 	0.000817481 	0 5.23215e-05 	0.000816476 	0 5.28084e-05 	0.000815472 	0 5.32951e-05 	0.00081447 	0 5.37817e-05 	0.00081347 	0 5.42186e-05 	0.000812572 	0 5.55086e-05 	0.000809923 	0 5.67982e-05 	0.000807282 	0 5.80871e-05 	0.000804651 	0 5.93755e-05 	0.00080203 	0 6.06649e-05 	0.000799415 	0 6.21929e-05 	0.000795116 	0 6.35684e-05 	0.000790837 	0 6.49444e-05 	0.000786573 	0 6.63207e-05 	0.000782326 	0 6.76998e-05 	0.000778086 	0 6.90764e-05 	0.000773078 	0 7.00295e-05 	0.000768144 	0 7.09842e-05 	0.000763223 	0 7.19404e-05 	0.000758316 	0 7.29e-05 	0.000753413 	0 7.40486e-05 	0.000747628 	0 7.47153e-05 	0.000741976 	0 7.52376e-05 	0.000736372 	0 7.57623e-05 	0.000730778 	0 7.62903e-05 	0.000725184 	0 7.70537e-05 	0.000718618 	0 7.76901e-05 	0.00071211 	0 7.77858e-05 	0.000705796 	0 7.78841e-05 	0.00069949 	0 7.79853e-05 	0.00069318 	0 7.83914e-05 	0.00068581 	0 7.88017e-05 	0.000678453 	0 7.8811e-05 	0.000671275 	0 7.85104e-05 	0.000664234 	0 7.82119e-05 	0.000657185 	0 7.83183e-05 	0.000648995 	0 7.843e-05 	0.000640817 	0 7.85472e-05 	0.000632652 	0 7.79942e-05 	0.000624817 	0 7.73559e-05 	0.000617012 	0 7.72698e-05 	0.000607999 	0 7.71907e-05 	0.000598997 	0 7.71189e-05 	0.000590007 	0 7.6926e-05 	0.000581096 	0 7.60631e-05 	0.000572528 	0 7.59785e-05 	0.000562698 	0 7.59048e-05 	0.000552883 	0 7.58424e-05 	0.000543082 	0 7.57918e-05 	0.000533296 	0 7.5439e-05 	0.00052367 	0 7.55497e-05 	0.000518944 	0 7.56644e-05 	0.000514222 	0 7.57833e-05 	0.000509504 	0 7.59064e-05 	0.000504791 	0 7.60208e-05 	0.00050056 	0 7.63241e-05 	0.000494453 	0 7.66379e-05 	0.000488352 	0 7.69625e-05 	0.000482258 	0 7.72984e-05 	0.000476172 	0 7.76471e-05 	0.000470068 	0 7.94961e-05 	0.000458219 	0 8.09354e-05 	0.000446637 	0 8.24394e-05 	0.000435091 	0 8.40124e-05 	0.000423582 	0 8.56823e-05 	0.000411952 	0 8.95188e-05 	0.000399218 	0 9.32485e-05 	0.000386675 	0 9.65203e-05 	0.000374493 	0 9.99393e-05 	0.000362392 	0 0.000103649 	0.000349934 	0 0.000109723 	0.000336648 	0 0.000116033 	0.000323534 	0 0.000122593 	0.000310617 	0 0.000129385 	0.000297937 	0 0.000136615 	0.000284478 	0 0.000138926 	0.000280924 	0 0.000141265 	0.000277396 	0 0.00014363 	0.000273894 	0 0.000146024 	0.000270419 	0 0.000147909 	0.000267736 	0 0.000155599 	0.000257323 	0 0.000163574 	0.000247179 	0 0.000171832 	0.000237329 	0 0.000180367 	0.000227801 	0 0.000191614 	0.000216071 	0 0.0001987 	0.000208347 	0 0.000205984 	0.000200909 	0 0.000213455 	0.000193765 	0 0.000221102 	0.000186922 	0 0.000226293 	0.000182578 	0 0.000235101 	0.000175457 	0 0.000244087 	0.000168701 	0 0.000253232 	0.000162306 	0 0.000262516 	0.000156263 	0 0.00027733 	0.000147288 	0 0.000279659 	0.000145603 	0 0.000282014 	0.000143946 	0 0.000284392 	0.000142317 	0 0.000286793 	0.000140717 	0 0.000289118 	0.00013921 	0 0.000297521 	0.000132965 	0 0.00030684 	0.000127235 	0 0.000316672 	0.000121932 	0 0.000326815 	0.000117001 	0 0.000336053 	0.000112943 	0 0.000345045 	0.00010866 	0 0.00035424 	0.000104647 	0 0.000363621 	0.000100887 	0 0.000373271 	9.73859e-05 	0 0.000383485 	9.44941e-05 	0 0.000389567 	9.25793e-05 	0 0.000395708 	9.07401e-05 	0 0.000401905 	8.89733e-05 	0 0.000408154 	8.72756e-05 	0 0.000416774 	8.50429e-05 	0 0.000418505 	8.44717e-05 	0 0.000420258 	8.39081e-05 	0 0.000422033 	8.3352e-05 	0 0.000423829 	8.28034e-05 	0 0.000425638 	8.22645e-05 	0 0.000429775 	8.0497e-05 	0 0.000435415 	7.8924e-05 	0 0.000441267 	7.74201e-05 	0 0.000447325 	7.59829e-05 	0 0.000453515 	7.46246e-05 	0 0.000456168 	7.29712e-05 	0 0.000460918 	7.15952e-05 	0 0.000467502 	7.04668e-05 	0 0.000474269 	6.93938e-05 	0 0.000481161 	6.83813e-05 	0 0.000484395 	6.69798e-05 	0 0.000487779 	6.56244e-05 	0 0.000493937 	6.46683e-05 	0 0.000501503 	6.39265e-05 	0 0.000509183 	6.32321e-05 	0 0.00051306 	6.20411e-05 	0 0.000517078 	6.08915e-05 	0 0.000521234 	5.97819e-05 	0 0.000529548 	5.93267e-05 	0 0.000538122 	5.89337e-05 	0 0.000542717 	5.79247e-05 	0 0.000547447 	5.69531e-05 	0 0.000552306 	5.60177e-05 	0 0.000558885 	5.53883e-05 	0 0.00056848 	5.52887e-05 	0 0.000573883 	5.44424e-05 	0 0.000579413 	5.36304e-05 	0 0.000585067 	5.28514e-05 	0 0.000590839 	5.21042e-05 	0 0.000600751 	5.21389e-05 	0 0.000607068 	5.14435e-05 	0 0.000613504 	5.07794e-05 	0 0.000620056 	5.01456e-05 	0 0.000626719 	4.95408e-05 	0 0.000635431 	4.93546e-05 	0 0.000641858 	4.88729e-05 	0 0.000648371 	4.84132e-05 	0 0.000654967 	4.79748e-05 	0 0.000661643 	4.75569e-05 	0 0.000669774 	4.70775e-05 	0 0.000670026 	4.70835e-05 	0 0.000670278 	4.70894e-05 	0 0.00067053 	4.70953e-05 	0 0.000670783 	4.71013e-05 	0 0.000671036 	4.71072e-05 	0 0.000673582 	4.719e-05 	0 0.000676571 	4.73004e-05 	0 0.000679582 	4.74123e-05 	0 0.000682614 	4.75257e-05 	0 0.000685667 	4.76407e-05 	0 0.000683384 	4.74411e-05 	0 0.000686679 	4.76009e-05 	0 0.000689991 	4.77618e-05 	0 0.00069332 	4.79239e-05 	0 0.000696664 	4.8087e-05 	0 0.000688661 	4.7525e-05 	0 0.0006923 	4.77322e-05 	0 0.00069595 	4.79402e-05 	0 0.000699612 	4.8149e-05 	0 0.000703284 	4.83585e-05 	0 0.000690972 	4.75119e-05 	0 0.000692519 	4.75979e-05 	0 0.000696547 	4.78509e-05 	0 0.000700581 	4.81042e-05 	0 0.000704621 	4.83581e-05 	0 0.000691129 	4.74321e-05 	0 0.000686241 	4.7092e-05 	0 0.000690686 	4.73873e-05 	0 0.000695135 	4.76828e-05 	0 0.000699586 	4.79785e-05 	0 0.000684782 	4.69632e-05 	0 0.000672176 	4.60984e-05 	0 0.000677081 	4.64329e-05 	0 0.000681987 	4.67673e-05 	0 0.000686894 	4.71018e-05 	0 0.000670641 	4.59873e-05 	0 0.000654389 	4.48729e-05 	0 0.000654238 	4.48614e-05 	0 0.000659646 	4.52308e-05 	0 0.000665055 	4.56002e-05 	0 0.00064721 	4.43766e-05 	0 0.000629364 	4.31529e-05 	0 0.00062045 	4.25382e-05 	0 0.000626405 	4.29371e-05 	0 0.000632364 	4.33364e-05 	0 0.000612777 	4.1994e-05 	0 0.000593189 	4.06517e-05 	0 0.000573794 	3.93223e-05 	0 0.000580337 	3.9743e-05 	0 0.000586895 	4.01648e-05 	0 0.000565415 	3.86948e-05 	0 0.000543934 	3.72247e-05 	0 0.000522454 	3.57547e-05 	0 0.000519311 	3.5503e-05 	0 0.000526511 	3.59386e-05 	0 0.000502987 	3.43329e-05 	0 0.000479463 	3.27272e-05 	0 0.000455939 	3.11215e-05 	0 0.000440992 	3.00739e-05 	0 0.000448868 	3.05117e-05 	0 0.000423152 	2.87637e-05 	0 0.000397437 	2.70156e-05 	0 0.000371721 	2.52676e-05 	0 0.000346005 	2.35196e-05 	0 0.000351433 	2.37436e-05 	0 0.000323388 	2.18488e-05 	0 0.000295343 	1.99541e-05 	0 0.000267299 	1.80593e-05 	0 0.000239254 	1.61645e-05 	0 0.000231599 	1.55167e-05 	0 0.000201103 	1.34735e-05 	0 0.000170607 	1.14304e-05 	0 0.000140112 	9.38723e-06 	0 0.000109616 	7.34409e-06 	0 8.66838e-05 	5.74377e-06 	0 6.93471e-05 	4.59502e-06 	0 5.20103e-05 	3.44626e-06 	0 3.46735e-05 	2.29751e-06 	0 1.73368e-05 	1.14875e-06 	0 0 	0 	0
-2.41136e-21 	-3.36099e-20 	0