# vtk DataFile Version 2.0
track0
ASCII
DATASET POLYDATA
POINTS 20002 float
1.11022e-18 0.5 1.11022e-18
0.391304 0.5 1.11022e-18
0.391043 0.499451 1.11022e-18
0.390785 0.4989 1.11022e-18
0.39053 0.498348 1.11022e-18
0.390278 0.497795 1.11022e-18
0.39 0.497178 1.11022e-18
0.389363 0.495743 1.11022e-18
0.388744 0.494299 1.11022e-18
0.388144 0.492848 1.11022e-18
0.387561 0.491389 1.11022e-18
0.387025 0.49 1.11022e-18
0.386279 0.488 1.11022e-18
0.385563 0.485989 1.11022e-18
0.384878 0.483967 1.11022e-18
0.384222 0.481936 1.11022e-18
0.383626 0.48 1.11022e-18
0.383038 0.478 1.11022e-18
0.382475 0.475993 1.11022e-18
0.381938 0.473979 1.11022e-18
0.381424 0.471958 1.11022e-18
0.380949 0.47 1.11022e-18
0.380759 0.469178 1.11022e-18
0.380573 0.468355 1.11022e-18
0.380391 0.467532 1.11022e-18
0.380211 0.466707 1.11022e-18
0.38 0.465715 1.11022e-18
0.379763 0.464572 1.11022e-18
0.379532 0.463428 1.11022e-18
0.379307 0.462282 1.11022e-18
0.379089 0.461135 1.11022e-18
0.378879 0.46 1.11022e-18
0.378521 0.458 1.11022e-18
0.37818 0.455997 1.11022e-18
0.377857 0.453991 1.11022e-18
0.377552 0.451982 1.11022e-18
0.377266 0.45 1.11022e-18
0.376995 0.448 1.11022e-18
0.376739 0.445998 1.11022e-18
0.376498 0.443994 1.11022e-18
0.376271 0.441988 1.11022e-18
0.376061 0.44 1.11022e-18
0.375863 0.438 1.11022e-18
0.375679 0.435999 1.11022e-18
0.375508 0.433996 1.11022e-18
0.375349 0.431993 1.11022e-18
0.375204 0.43 1.11022e-18
0.37507 0.428 1.11022e-18
0.374947 0.425999 1.11022e-18
0.374836 0.423998 1.11022e-18
0.374736 0.421996 1.11022e-18
0.374648 0.42 1.11022e-18
0.374569 0.418 1.11022e-18
0.3745 0.416 1.11022e-18
0.374442 0.413999 1.11022e-18
0.374394 0.411998 1.11022e-18
0.374355 0.41 1.11022e-18
0.374325 0.408 1.11022e-18
0.374304 0.406 1.11022e-18
0.374292 0.404 1.11022e-18
0.374289 0.401999 1.11022e-18
0.374294 0.4 1.11022e-18
0.374308 0.398 1.11022e-18
0.374329 0.396 1.11022e-18
0.374358 0.394 1.11022e-18
0.374395 0.392001 1.11022e-18
0.37444 0.39 1.11022e-18
0.374492 0.388 1.11022e-18
0.374551 0.386 1.11022e-18
0.374617 0.384001 1.11022e-18
0.37469 0.382001 1.11022e-18
0.374769 0.38 1.11022e-18
0.374855 0.378 1.11022e-18
0.374948 0.376 1.11022e-18
0.375047 0.374001 1.11022e-18
0.375152 0.372002 1.11022e-18
0.375263 0.37 1.11022e-18
0.375379 0.368 1.11022e-18
0.375502 0.366 1.11022e-18
0.37563 0.364001 1.11022e-18
0.375763 0.362002 1.11022e-18
0.375902 0.36 1.11022e-18
0.376046 0.358 1.11022e-18
0.376195 0.356 1.11022e-18
0.376348 0.354001 1.11022e-18
0.376507 0.352002 1.11022e-18
0.376671 0.35 1.11022e-18
0.376839 0.348 1.11022e-18
0.377011 0.346 1.11022e-18
0.377187 0.344001 1.11022e-18
0.377368 0.342002 1.11022e-18
0.377553 0.34 1.11022e-18
0.377742 0.338 1.11022e-18
0.377935 0.336 1.11022e-18
0.378131 0.334001 1.11022e-18
0.378331 0.332002 1.11022e-18
0.378534 0.33 1.11022e-18
0.378741 0.328 1.11022e-18
0.378951 0.326 1.11022e-18
0.379164 0.324001 1.11022e-18
0.37938 0.322002 1.11022e-18
0.379599 0.32 1.11022e-18
0.37968 0.319278 1.11022e-18
0.37976 0.318557 1.11022e-18
0.379841 0.317835 1.11022e-18
0.379922 0.317114 1.11022e-18
0.38 0.316421 1.11022e-18
0.380145 0.315137 1.11022e-18
0.380292 0.313853 1.11022e-18
0.380439 0.312569 1.11022e-18
0.380588 0.311285 1.11022e-18
0.380738 0.31 1.11022e-18
0.380973 0.308 1.11022e-18
0.38121 0.306 1.11022e-18
0.381448 0.304001 1.11022e-18
0.381689 0.302001 1.11022e-18
0.381932 0.3 1.11022e-18
0.382177 0.298 1.11022e-18
0.382424 0.296 1.11022e-18
0.382672 0.294001 1.11022e-18
0.382921 0.292001 1.11022e-18
0.383172 0.29 1.11022e-18
0.383425 0.288 1.11022e-18
0.383678 0.286 1.11022e-18
0.383932 0.284 1.11022e-18
0.384187 0.282001 1.11022e-18
0.384443 0.28 1.11022e-18
0.3847 0.278 1.11022e-18
0.384957 0.276 1.11022e-18
0.385215 0.274 1.11022e-18
0.385473 0.272 1.11022e-18
0.385731 0.27 1.11022e-18
0.385991 0.268 1.11022e-18
0.386249 0.266 1.11022e-18
0.386507 0.264 1.11022e-18
0.386766 0.262 1.11022e-18
0.387024 0.26 1.11022e-18
0.387283 0.258 1.11022e-18
0.387541 0.256 1.11022e-18
0.387798 0.254 1.11022e-18
0.388055 0.251999 1.11022e-18
0.388311 0.25 1.11022e-18
0.388567 0.248 1.11022e-18
0.388822 0.246 1.11022e-18
0.389075 0.243999 1.11022e-18
0.389329 0.241999 1.11022e-18
0.389581 0.24 1.11022e-18
0.389665 0.239334 1.11022e-18
0.389748 0.238668 1.11022e-18
0.389832 0.238001 1.11022e-18
0.389915 0.237335 1.11022e-18
0.39 0.236656 1.11022e-18
0.390166 0.235324 1.11022e-18
0.390332 0.233993 1.11022e-18
0.390497 0.232662 1.11022e-18
0.390661 0.231331 1.11022e-18
0.390825 0.23 1.11022e-18
0.391072 0.228 1.11022e-18
0.391317 0.226 1.11022e-18
0.391561 0.223999 1.11022e-18
0.391803 0.221999 1.11022e-18
0.392043 0.22 1.11022e-18
0.392284 0.218 1.11022e-18
0.392523 0.216 1.11022e-18
0.392761 0.213999 1.11022e-18
0.392996 0.211999 1.11022e-18
0.393231 0.21 1.11022e-18
0.393466 0.208 1.11022e-18
0.3937 0.206 1.11022e-18
0.393931 0.203999 1.11022e-18
0.394161 0.201999 1.11022e-18
0.394391 0.2 1.11022e-18
0.394621 0.198 1.11022e-18
0.39485 0.196 1.11022e-18
0.395077 0.193999 1.11022e-18
0.395304 0.191999 1.11022e-18
0.395531 0.19 1.11022e-18
0.39576 0.188 1.11022e-18
0.395987 0.186 1.11022e-18
0.396212 0.184 1.11022e-18
0.39644 0.181999 1.11022e-18
0.396669 0.18 1.11022e-18
0.3969 0.178 1.11022e-18
0.39713 0.176 1.11022e-18
0.397361 0.174 1.11022e-18
0.397595 0.172 1.11022e-18
0.397832 0.17 1.11022e-18
0.398072 0.168 1.11022e-18
0.398314 0.166 1.11022e-18
0.398559 0.164001 1.11022e-18
0.398809 0.162002 1.11022e-18
0.399064 0.16 1.11022e-18
0.399251 0.15856 1.11022e-18
0.399441 0.15712 1.11022e-18
0.399634 0.155681 1.11022e-18
0.399831 0.154242 1.11022e-18
0.4 0.153033 1.11022e-18
0.400086 0.152427 1.11022e-18
0.400173 0.15182 1.11022e-18
0.40026 0.151214 1.11022e-18
0.400348 0.150607 1.11022e-18
0.400437 0.15 1.11022e-18
0.400733 0.148 1.11022e-18
0.401039 0.146002 1.11022e-18
0.401356 0.144005 1.11022e-18
0.401684 0.14201 1.11022e-18
0.402026 0.14 1.11022e-18
0.402382 0.138 1.11022e-18
0.402754 0.136003 1.11022e-18
0.403142 0.134009 1.11022e-18
0.403548 0.132018 1.11022e-18
0.403981 0.13 1.11022e-18
0.404434 0.128 1.11022e-18
0.404912 0.126006 1.11022e-18
0.405415 0.124018 1.11022e-18
0.405948 0.122038 1.11022e-18
0.406532 0.12 1.11022e-18
0.407144 0.118 1.11022e-18
0.407795 0.116012 1.11022e-18
0.408489 0.114039 1.11022e-18
0.409229 0.112083 1.11022e-18
0.41 0.110192 1.11022e-18
0.410017 0.110154 1.11022e-18
0.410034 0.110115 1.11022e-18
0.410051 0.110077 1.11022e-18
0.410068 0.110039 1.11022e-18
0.410085 0.11 1.11022e-18
0.410969 0.108 1.11022e-18
0.411915 0.106029 1.11022e-18
0.412927 0.10409 1.11022e-18
0.414009 0.10219 1.11022e-18
0.41537 0.1 1.11022e-18
0.416296 0.0986587 1.11022e-18
0.417268 0.0973503 1.11022e-18
0.418287 0.0960781 1.11022e-18
0.41935 0.0948429 1.11022e-18
0.42 0.0941416 1.11022e-18
0.420803 0.0933133 1.11022e-18
0.421628 0.0925069 1.11022e-18
0.422474 0.0917235 1.11022e-18
0.423342 0.0909633 1.11022e-18
0.424501 0.09 1.11022e-18
0.425601 0.0891483 1.11022e-18
0.426729 0.0883349 1.11022e-18
0.427885 0.0875614 1.11022e-18
0.429068 0.0868284 1.11022e-18
0.43 0.0862898 1.11022e-18
0.432 0.0851981 1.11022e-18
0.434053 0.0842093 1.11022e-18
0.436154 0.0833267 1.11022e-18
0.438291 0.082538 1.11022e-18
0.44 0.081991 1.11022e-18
0.441407 0.0815928 1.11022e-18
0.442825 0.081233 1.11022e-18
0.44425 0.0809068 1.11022e-18
0.445683 0.0806136 1.11022e-18
0.449077 0.08 1.11022e-18
0.449261 0.0799768 1.11022e-18
0.449446 0.0799541 1.11022e-18
0.449631 0.0799319 1.11022e-18
0.449816 0.0799103 1.11022e-18
0.45 0.0798892 1.11022e-18
0.452 0.0796663 1.11022e-18
0.454005 0.0794967 1.11022e-18
0.456014 0.0793802 1.11022e-18
0.458026 0.0793165 1.11022e-18
0.46 0.0793053 1.11022e-18
0.462 0.079342 1.11022e-18
0.463999 0.0794235 1.11022e-18
0.465995 0.0795497 1.11022e-18
0.467988 0.0797203 1.11022e-18
0.47 0.0799378 1.11022e-18
0.470095 0.0799503 1.11022e-18
0.47019 0.0799628 1.11022e-18
0.470285 0.0799754 1.11022e-18
0.47038 0.0799881 1.11022e-18
0.470469 0.08 1.11022e-18
0.472375 0.0802585 1.11022e-18
0.474276 0.0805545 1.11022e-18
0.47617 0.080888 1.11022e-18
0.478058 0.081259 1.11022e-18
0.48 0.0816812 1.11022e-18
0.482 0.0821593 1.11022e-18
0.483989 0.0826805 1.11022e-18
0.485967 0.0832423 1.11022e-18
0.487934 0.0838447 1.11022e-18
0.49 0.0845249 1.11022e-18
0.492 0.0852323 1.11022e-18
0.493984 0.0859829 1.11022e-18
0.495952 0.0867766 1.11022e-18
0.497901 0.0876132 1.11022e-18
0.5 0.0885685 1.11022e-18
0.500592 0.0888548 1.11022e-18
0.501182 0.0891451 1.11022e-18
0.50177 0.0894392 1.11022e-18
0.502356 0.0897373 1.11022e-18
0.502864 0.09 1.11022e-18
0.504292 0.0907484 1.11022e-18
0.505706 0.0915203 1.11022e-18
0.507108 0.0923155 1.11022e-18
0.508496 0.0931338 1.11022e-18
0.51 0.0940543 1.11022e-18
0.511866 0.0952435 1.11022e-18
0.513705 0.0964742 1.11022e-18
0.515516 0.0977459 1.11022e-18
0.517298 0.0990578 1.11022e-18
0.518519 0.1 1.11022e-18
0.518815 0.100236 1.11022e-18
0.519111 0.100473 1.11022e-18
0.519405 0.100711 1.11022e-18
0.519699 0.10095 1.11022e-18
0.52 0.101197 1.11022e-18
0.522 0.102852 1.11022e-18
0.523958 0.104557 1.11022e-18
0.525872 0.106311 1.11022e-18
0.527742 0.108111 1.11022e-18
0.529612 0.11 1.11022e-18
0.52969 0.110082 1.11022e-18
0.529767 0.110165 1.11022e-18
0.529845 0.110247 1.11022e-18
0.529922 0.11033 1.11022e-18
0.53 0.110414 1.11022e-18
0.531788 0.112331 1.11022e-18
0.53353 0.114289 1.11022e-18
0.535227 0.116287 1.11022e-18
0.536879 0.118322 1.11022e-18
0.53818 0.12 1.11022e-18
0.538544 0.120487 1.11022e-18
0.538906 0.120975 1.11022e-18
0.539265 0.121465 1.11022e-18
0.539622 0.121957 1.11022e-18
0.54 0.122484 1.11022e-18
0.541067 0.123987 1.11022e-18
0.542114 0.125505 1.11022e-18
0.543138 0.127038 1.11022e-18
0.544142 0.128584 1.11022e-18
0.545034 0.13 1.11022e-18
0.546027 0.131619 1.11022e-18
0.546999 0.133252 1.11022e-18
0.547949 0.134897 1.11022e-18
0.548878 0.136554 1.11022e-18
0.55 0.138617 1.11022e-18
0.550145 0.138894 1.11022e-18
0.55029 0.13917 1.11022e-18
0.550434 0.139448 1.11022e-18
0.550577 0.139725 1.11022e-18
0.550719 0.14 1.11022e-18
[...]
POINT_DATA 20002
 FIELD attributes 1
U 3 20002 float
-1.18985e-19 	-8.02346e-18 	0
0.0374792 	0.0789084 	0 0.037188 	0.0793455 	0 0.0368979 	0.0797818 	0 0.0366088 	0.0802173 	0 0.0363208 	0.080652 	0 0.0360017 	0.0811346 	0 0.0352388 	0.0822422 	0 0.034484 	0.0833443 	0 0.033737 	0.0844409 	0 0.0329978 	0.0855319 	0 0.0323045 	0.0865609 	0 0.0313358 	0.0881044 	0 0.0303813 	0.089638 	0 0.0294341 	0.0911189 	0 0.0284971 	0.0925681 	0 0.0276204 	0.093932 	0 0.0267394 	0.0954077 	0 0.0258704 	0.0968728 	0 0.025013 	0.0983275 	0 0.024167 	0.0997719 	0 0.0233552 	0.101112 	0 0.0230202 	0.101695 	0 0.0226869 	0.102276 	0 0.0223553 	0.102855 	0 0.0220254 	0.103432 	0 0.0216307 	0.104124 	0 0.0211695 	0.104903 	0 0.0207117 	0.10568 	0 0.0202573 	0.106454 	0 0.0198062 	0.107224 	0 0.0193634 	0.107984 	0 0.0185848 	0.10937 	0 0.0178147 	0.110702 	0 0.0170539 	0.112025 	0 0.0163024 	0.11334 	0 0.0155707 	0.114627 	0 0.0148343 	0.115993 	0 0.0141067 	0.117323 	0 0.0133876 	0.118603 	0 0.0126765 	0.119876 	0 0.0119798 	0.121128 	0 0.0112774 	0.122459 	0 0.0105824 	0.123782 	0 0.00989703 	0.125037 	0 0.00921917 	0.126272 	0 0.0085521 	0.127492 	0 0.00787817 	0.128791 	0 0.00721091 	0.130082 	0 0.00655227 	0.131332 	0 0.00590263 	0.132534 	0 0.00526128 	0.133725 	0 0.00461221 	0.134993 	0 0.00396911 	0.136254 	0 0.00333337 	0.137491 	0 0.00270848 	0.138664 	0 0.00209011 	0.139827 	0 0.00146367 	0.141068 	0 0.000842612 	0.142302 	0 0.000228038 	0.143518 	0 -0.000374223 	0.144663 	0 -0.000971283 	0.145801 	0 -0.0015761 	0.147017 	0 -0.00217605 	0.148226 	0 -0.00276953 	0.149416 	0 -0.00335027 	0.150536 	0 -0.00392679 	0.151651 	0 -0.00450995 	0.152843 	0 -0.0050887 	0.154029 	0 -0.00565993 	0.155186 	0 -0.00621936 	0.156284 	0 -0.0067753 	0.157378 	0 -0.00733561 	0.158547 	0 -0.00789194 	0.159711 	0 -0.00843882 	0.160831 	0 -0.00897628 	0.161909 	0 -0.00951082 	0.162983 	0 -0.0100459 	0.16413 	0 -0.0105774 	0.165271 	0 -0.0110973 	0.166352 	0 -0.0116114 	0.16741 	0 -0.0121229 	0.168465 	0 -0.0126291 	0.169589 	0 -0.0131313 	0.170702 	0 -0.0136226 	0.171747 	0 -0.0141108 	0.172787 	0 -0.014597 	0.173823 	0 -0.0150693 	0.174923 	0 -0.0155366 	0.175988 	0 -0.0159984 	0.177014 	0 -0.0164574 	0.178035 	0 -0.0169147 	0.179053 	0 -0.0173471 	0.180126 	0 -0.0177774 	0.181142 	0 -0.0182054 	0.182148 	0 -0.018631 	0.183149 	0 -0.0190551 	0.184148 	0 -0.0194427 	0.185173 	0 -0.0198335 	0.186159 	0 -0.0202223 	0.187142 	0 -0.0206092 	0.188122 	0 -0.0209948 	0.189099 	0 -0.0211167 	0.189454 	0 -0.0212416 	0.189801 	0 -0.0213662 	0.190148 	0 -0.0214907 	0.190494 	0 -0.0216101 	0.190826 	0 -0.0218352 	0.191391 	0 -0.0220595 	0.191955 	0 -0.0222833 	0.192516 	0 -0.0225063 	0.193077 	0 -0.0227322 	0.193598 	0 -0.0230303 	0.194438 	0 -0.0233272 	0.195275 	0 -0.0236229 	0.196109 	0 -0.0239175 	0.19694 	0 -0.0242285 	0.197674 	0 -0.0244636 	0.198459 	0 -0.0246978 	0.199243 	0 -0.0249313 	0.200025 	0 -0.0251777 	0.200762 	0 -0.0254432 	0.201435 	0 -0.0256071 	0.202157 	0 -0.0257706 	0.202878 	0 -0.0259337 	0.203598 	0 -0.0261449 	0.204224 	0 -0.026357 	0.204846 	0 -0.0264419 	0.205492 	0 -0.0265269 	0.206139 	0 -0.0266494 	0.20674 	0 -0.0268037 	0.207301 	0 -0.0269577 	0.207861 	0 -0.0269569 	0.208417 	0 -0.0269667 	0.208967 	0 -0.027059 	0.209455 	0 -0.0271512 	0.209942 	0 -0.0272432 	0.210428 	0 -0.0271515 	0.210878 	0 -0.0271412 	0.211293 	0 -0.0271686 	0.21169 	0 -0.027196 	0.212088 	0 -0.0272236 	0.212486 	0 -0.0270753 	0.212801 	0 -0.0270372 	0.21309 	0 -0.0269993 	0.21338 	0 -0.0269617 	0.213671 	0 -0.0269243 	0.213963 	0 -0.0268577 	0.214019 	0 -0.0268241 	0.214072 	0 -0.0267904 	0.214125 	0 -0.0267568 	0.214178 	0 -0.0267225 	0.214233 	0 -0.026648 	0.214249 	0 -0.0265736 	0.214266 	0 -0.0264994 	0.214284 	0 -0.0264253 	0.214303 	0 -0.0264093 	0.21428 	0 -0.026235 	0.214137 	0 -0.0260611 	0.213998 	0 -0.0258875 	0.213862 	0 -0.0257142 	0.21373 	0 -0.0257121 	0.21351 	0 -0.0254872 	0.213182 	0 -0.0252627 	0.212858 	0 -0.0250384 	0.212538 	0 -0.0249111 	0.212187 	0 -0.0249042 	0.211793 	0 -0.0246454 	0.211255 	0 -0.0243867 	0.210721 	0 -0.0241281 	0.210192 	0 -0.0241085 	0.20961 	0 -0.0240964 	0.209026 	0 -0.0238261 	0.208252 	0 -0.0235556 	0.207481 	0 -0.0234179 	0.206698 	0 -0.0234218 	0.205898 	0 -0.0234258 	0.205096 	0 -0.0231726 	0.204057 	0 -0.022919 	0.203021 	0 -0.0229637 	0.201978 	0 -0.0230105 	0.200932 	0 -0.0230579 	0.199882 	0 -0.0228567 	0.198548 	0 -0.0228189 	0.197224 	0 -0.0229409 	0.195907 	0 -0.0230643 	0.194583 	0 -0.0231889 	0.193252 	0 -0.0230924 	0.191591 	0 -0.0233273 	0.189976 	0 -0.0235648 	0.188351 	0 -0.0238051 	0.186716 	0 -0.0240487 	0.185066 	0 -0.0241829 	0.183632 	0 -0.0244665 	0.18223 	0 -0.0247529 	0.180819 	0 -0.025042 	0.179399 	0 -0.0252875 	0.178199 	0 -0.0253946 	0.177545 	0 -0.0255022 	0.176889 	0 -0.0256101 	0.176231 	0 -0.0257184 	0.175571 	0 -0.0258856 	0.174928 	0 -0.0264201 	0.172455 	0 -0.0269615 	0.169954 	0 -0.0275101 	0.167423 	0 -0.0280661 	0.164862 	0 -0.0289026 	0.162398 	0 -0.0296867 	0.159486 	0 -0.0304831 	0.156532 	0 -0.0312926 	0.153533 	0 -0.0323105 	0.150651 	0 -0.0334751 	0.147762 	0 -0.0345743 	0.144342 	0 -0.0356952 	0.140861 	0 -0.0370044 	0.13751 	0 -0.0384711 	0.134243 	0 -0.0400186 	0.130789 	0 -0.041521 	0.12676 	0 -0.0432486 	0.122953 	0 -0.0451096 	0.119207 	0 -0.0470165 	0.115367 	0 -0.0489248 	0.111522 	0 -0.0489603 	0.111435 	0 -0.0489958 	0.111349 	0 -0.0490313 	0.111262 	0 -0.0490688 	0.111181 	0 -0.0491083 	0.111105 	0 -0.0511477 	0.106594 	0 -0.0532304 	0.101959 	0 -0.0553576 	0.0971928 	0 -0.0576329 	0.0927018 	0 -0.0604482 	0.0875633 	0 -0.0622421 	0.0838129 	0 -0.0640625 	0.0799958 	0 -0.065999 	0.0766765 	0 -0.0679618 	0.0733214 	0 -0.0691256 	0.0713211 	0 -0.0703089 	0.0687449 	0 -0.0714948 	0.06614 	0 -0.0726941 	0.0636931 	0 -0.0739079 	0.0614378 	0 -0.0754936 	0.0584617 	0 -0.0769249 	0.0554513 	0 -0.0783543 	0.052421 	0 -0.0797817 	0.0494607 	0 -0.0812124 	0.0469133 	0 -0.082315 	0.0449317 	0 -0.0841358 	0.0405262 	0 -0.0859186 	0.0360962 	0 -0.0876263 	0.0323298 	0 -0.089292 	0.0285851 	0 -0.0905698 	0.02563 	0 -0.0913056 	0.0231763 	0 -0.0919792 	0.0210485 	0 -0.0926298 	0.0189557 	0 -0.0932622 	0.0168612 	0 -0.0947105 	0.0119201 	0 -0.0947814 	0.0116495 	0 -0.094852 	0.011379 	0 -0.0949223 	0.0111087 	0 -0.0949924 	0.0108386 	0 -0.0950591 	0.0105934 	0 -0.095426 	0.0080713 	0 -0.0957658 	0.00555462 	0 -0.0960785 	0.00304509 	0 -0.096364 	0.000544414 	0 -0.0965926 	-0.00177422 	0 -0.0965138 	-0.00393495 	0 -0.0964133 	-0.0060923 	0 -0.0962912 	-0.0082452 	0 -0.0961477 	-0.0103926 	0 -0.095978 	-0.0125491 	0 -0.0959574 	-0.012641 	0 -0.0959368 	-0.0127329 	0 -0.0959161 	-0.0128249 	0 -0.0958954 	-0.0129168 	0 -0.0958761 	-0.0130021 	0 -0.0954499 	-0.0148622 	0 -0.0950068 	-0.0167236 	0 -0.0945468 	-0.0185855 	0 -0.0940701 	-0.0204472 	0 -0.0935604 	-0.0223694 	0 -0.0929223 	-0.0243435 	0 -0.0921833 	-0.0261831 	0 -0.0914204 	-0.0280084 	0 -0.0906441 	-0.0298345 	0 -0.0898088 	-0.0317666 	0 -0.088923 	-0.0336399 	0 -0.0880241 	-0.0355117 	0 -0.0871125 	-0.037381 	0 -0.0861689 	-0.039221 	0 -0.0850739 	-0.0411417 	0 -0.0847494 	-0.041684 	0 -0.0844242 	-0.0422263 	0 -0.0840985 	-0.0427687 	0 -0.0837721 	-0.0433109 	0 -0.0834878 	-0.0437825 	0 -0.0826953 	-0.0451246 	0 -0.0818998 	-0.0464662 	0 -0.0811015 	-0.0478071 	0 -0.0803007 	-0.0491468 	0 -0.0794218 	-0.0506113 	0 -0.0782882 	-0.0523992 	0 -0.0771516 	-0.0541833 	0 -0.0760125 	-0.055963 	0 -0.0748717 	-0.0577372 	0 -0.0740753 	-0.0589699 	0 -0.0738856 	-0.0592763 	0 -0.073696 	-0.0595825 	0 -0.0735064 	-0.0598885 	0 -0.0733168 	-0.0601942 	0 -0.0731214 	-0.0605092 	0 -0.0717797 	-0.0625172 	0 -0.0704405 	-0.0645166 	0 -0.0691045 	-0.0665064 	0 -0.0677724 	-0.0684853 	0 -0.0664134 	-0.0704993 	0 -0.0663581 	-0.0705867 	0 -0.0663027 	-0.070674 	0 -0.0662474 	-0.0707614 	0 -0.066192 	-0.0708487 	0 -0.0661361 	-0.0709369 	0 -0.064804 	-0.0728345 	0 -0.0634806 	-0.0747224 	0 -0.0621663 	-0.0765998 	0 -0.0608618 	-0.0784659 	0 -0.0598133 	-0.0799677 	0 -0.059529 	-0.0804113 	0 -0.0592454 	-0.0808542 	0 -0.0589623 	-0.0812965 	0 -0.0586799 	-0.0817381 	0 -0.0583791 	-0.0822089 	0 -0.0574891 	-0.0834305 	0 -0.0566056 	-0.0846482 	0 -0.0557287 	-0.0858621 	0 -0.0548585 	-0.0870719 	0 -0.0540748 	-0.0881659 	0 -0.0532401 	-0.0894641 	0 -0.0524128 	-0.0907579 	0 -0.0515932 	-0.0920474 	0 -0.050781 	-0.0933323 	0 -0.0497862 	-0.0949152 	0 -0.0496499 	-0.0951014 	0 -0.0495139 	-0.0952877 	0 -0.0493781 	-0.0954738 	0 -0.0492425 	-0.09566 	0 -0.0491085 	-0.0958442 	0 -0.0481905 	-0.0972368 	0 -0.0472532 	-0.0985685 	0 -0.0463256 	-0.0998952 	0 -0.0454076 	-0.101217 	0 -0.0445563 	-0.10245 	0 -0.0437557 	-0.1038 	0 -0.042964 	-0.105145 	0 -0.0421812 	-0.106486 	0 -0.041407 	-0.107822 	0 -0.0406607 	-0.109063 	0 -0.0405864 	-0.109196 	0 -0.0405121 	-0.109329 	0 -0.0404378 	-0.109462 	0 -0.0403637 	-0.109595 	0 -0.0402876 	-0.109732 	0 -0.0396274 	-0.110711 	0 -0.0389731 	-0.11169 	0 -0.0383246 	-0.112667 	0 -0.037682 	-0.113642 	0 -0.0370629 	-0.11459 	0 -0.0364445 	-0.115731 	0 -0.0358327 	-0.116872 	0 -0.0351894 	-0.117938 	0 -0.0345366 	-0.118972 	0 -0.0339048 	-0.119979 	0 -0.033349 	-0.121067 	0 -0.0327984 	-0.122153 	0 -0.032253 	-0.123236 	0 -0.0317126 	-0.124317 	0 -0.0311446 	-0.125294 	0 -0.0309176 	-0.125757 	0 -0.0306915 	-0.12622 	0 -0.0304662 	-0.126682 	0 -0.0302417 	-0.127144 	0 -0.0299942 	-0.127654 	0 -0.0297194 	-0.128111 	0 -0.0294457 	-0.128568 	0 -0.0291733 	-0.129025 	0 -0.028902 	-0.129483 	0 -0.0286337 	-0.129937 	0 -0.0282003 	-0.130821 	0 -0.0277264 	-0.131623 	0 -0.027256 	-0.132425 	0 -0.0267889 	-0.133228 	0 -0.0263299 	-0.134022 	0 -0.0259454 	-0.134882 	0 -0.0255639 	-0.135743 	0 -0.025133 	-0.136503 	0 -0.0247007 	-0.137254 	0 -0.0242744 	-0.137999 	0 -0.0239215 	-0.138812 	0 -0.0235709 	-0.139625 	0 -0.0232227 	-0.140436 	0 -0.0228287 	-0.141152 	0 -0.0224306 	-0.141845 	0 -0.0221042 	-0.142608 	0 -0.0217798 	-0.143371 	0 -0.0214573 	-0.144132 	0 -0.0211366 	-0.144892 	0 -0.0207673 	-0.14554 	0 -0.0204635 	-0.146252 	0 -0.0201613 	-0.146963 	0 -0.0198606 	-0.147672 	0 -0.0195614 	-0.14838 	0 -0.0192585 	-0.14907 	0 -0.0192157 	-0.149169 	0 -0.0191729 	-0.149268 	0 -0.0191302 	-0.149368 	0 -0.0190875 	-0.149467 	0 -0.0190436 	-0.149568 	0 -0.0187949 	-0.150005 	0 -0.0185472 	-0.150443 	0 -0.0183004 	-0.150882 	0 -0.0180547 	-0.151321 	0 -0.0178105 	-0.15176 	0 -0.0175642 	-0.152297 	0 -0.0172879 	-0.15277 	0 -0.0170126 	-0.153243 	0 -0.0167385 	-0.153717 	0 -0.0164661 	-0.15419 	0 -0.0162554 	-0.154733 	0 -0.0160046 	-0.155187 	0 -0.0157431 	-0.155615 	0 -0.0154826 	-0.156044 	0 -0.0152234 	-0.156473 	0 -0.0150248 	-0.156975 	0 -0.0148151 	-0.157451 	0 -0.0145653 	-0.157833 	0 -0.0143162 	-0.158216 	0 -0.0140682 	-0.158598 	0 -0.0138796 	-0.159058 	0 -0.0136915 	-0.159518 	0 -0.0134657 	-0.159887 	0 -0.0132259 	-0.160222 	0 -0.0129871 	-0.160556 	0 -0.0128065 	-0.160972 	0 -0.0126264 	-0.161388 	0 -0.0124319 	-0.161768 	0 -0.0121994 	-0.162054 	0 -0.0119676 	-0.162338 	0 -0.0117932 	-0.162709 	0 -0.0116191 	-0.163079 	0 -0.0114453 	-0.163449 	0 -0.0112244 	-0.1637 	0 -0.0109976 	-0.163934 	0 -0.0108271 	-0.164256 	0 -0.010657 	-0.164579 	0 -0.0104871 	-0.1649 	0 -0.0102888 	-0.165149 	0 -0.0100646 	-0.16533 	0 -0.00989594 	-0.165603 	0 -0.00972753 	-0.165874 	0 -0.00955933 	-0.166146 	0 -0.00937994 	-0.166387 	0 -0.00915576 	-0.166514 	0 -0.00898647 	-0.166733 	0 -0.00881732 	-0.166952 	0 -0.0086483 	-0.16717 	0 -0.00847943 	-0.167387 	0 -0.00825729 	-0.167468 	0 -0.00808449 	-0.167632 	0 -0.00791177 	-0.167794 	0 -0.00773912 	-0.167955 	0 -0.00756654 	-0.168116 	0 -0.00735377 	-0.168175 	0 -0.0071742 	-0.168278 	0 -0.00699464 	-0.16838 	0 -0.00681508 	-0.168481 	0 -0.00663552 	-0.16858 	0 -0.00642778 	-0.16861 	0 -0.00623763 	-0.168648 	0 -0.0060474 	-0.168684 	0 -0.0058571 	-0.168719 	0 -0.00566673 	-0.168753 	0 -0.00545917 	-0.168745 	0 -0.0052539 	-0.168712 	0 -0.00504847 	-0.168678 	0 -0.00484288 	-0.168641 	0 -0.00463713 	-0.168603 	0 -0.00442415 	-0.168548 	0 -0.00425724 	-0.168466 	0 -0.00409019 	-0.168382 	0 -0.00392299 	-0.168298 	0 -0.00375564 	-0.168213 	0 -0.0035147 	-0.168088 	0 -0.00346986 	-0.168058 	0 -0.00342502 	-0.168028 	0 -0.00338017 	-0.167998 	0 -0.00333532 	-0.167967 	0 -0.00329047 	-0.167937 	0 -0.00303761 	-0.167711 	0 -0.00278285 	-0.16748 	0 -0.00252782 	-0.16725 	0 -0.00227253 	-0.16702 	0 -0.00201703 	-0.166789 	0 -0.00173864 	-0.166495 	0 -0.00145056 	-0.16618 	0 -0.00116203 	-0.165866 	0 -0.000873039 	-0.165551 	0 -0.000583632 	-0.165235 	0 -0.000269059 	-0.164855 	0 6.05916e-05 	-0.164447 	0 0.000390969 	-0.164038 	0 0.000722078 	-0.163628 	0 0.00105392 	-0.163217 	0 0.00141814 	-0.162731 	0 0.00179895 	-0.162218 	0 0.00218087 	-0.161702 	0 0.00256391 	-0.161186 	0 0.00294816 	-0.160668 	0 0.00336555 	-0.160073 	0 0.00379491 	-0.15946 	0 0.00422581 	-0.158845 	0 0.00465829 	-0.158228 	0 0.00468748 	-0.158187 	0 0.00478286 	-0.158041 	0 0.00487833 	-0.157896 	0 0.00497388 	-0.15775 	0 0.00506952 	-0.157604 	0 0.00516876 	-0.157453 	0 0.00568636 	-0.156639 	0 0.0062065 	-0.155817 	0 0.00672922 	-0.154987 	0 0.00725455 	-0.154148 	0 0.0078097 	-0.153271 	0 0.00841663 	-0.152282 	0 0.00902715 	-0.151281 	0 0.00964132 	-0.15027 	0 0.0102592 	-0.149247 	0 0.0109465 	-0.14816 	0 0.0116589 	-0.146969 	0 0.0123763 	-0.145765 	0 0.0130989 	-0.144546 	0 0.0138268 	-0.143313 	0 0.014685 	-0.141992 	0 0.0155209 	-0.140572 	0 0.0163639 	-0.139133 	0 0.0172143 	-0.137677 	0 0.0181263 	-0.136185 	0 0.0191509 	-0.134632 	0 0.0201312 	-0.132948 	0 0.0211215 	-0.13124 	0 0.0221223 	-0.129509 	0 0.0232941 	-0.12775 	0 0.0244976 	-0.125935 	0 0.0256476 	-0.123947 	0 0.0268121 	-0.121928 	0 0.0281282 	-0.119915 	0 0.0294973 	-0.117878 	0 0.0309235 	-0.115748 	0 0.0322778 	-0.113403 	0 0.0337969 	-0.111103 	0 0.0353793 	-0.108785 	0 0.0369866 	-0.106426 	0 0.0387067 	-0.103897 	0 0.0387152 	-0.103882 	0 0.0387244 	-0.103868 	0 0.038734 	-0.103854 	0 0.0387436 	-0.103841 	0 0.0387531 	-0.103827 	0 0.0404481 	-0.101018 	0 0.0421685 	-0.0981509 	0 0.0439148 	-0.0952235 	0 0.0457434 	-0.0923465 	0 0.0478886 	-0.0892736 	0 0.0498987 	-0.0859234 	0 0.0519647 	-0.0825641 	0 0.0541885 	-0.0794526 	0 0.0564442 	-0.0762813 	0 0.0581316 	-0.0738977 	0 0.05834 	-0.0735492 	0 0.0585486 	-0.0732 	0 0.0587592 	-0.0728587 	0 0.0589773 	-0.0725499 	0 0.0592026 	-0.0722306 	0 0.0615684 	-0.0683756 	0 0.0639543 	-0.0644585 	0 0.0664027 	-0.060729 	0 0.0689172 	-0.0572437 	0 0.0716835 	-0.0533735 	0 0.0718753 	-0.0530459 	0 0.072067 	-0.0527181 	0 0.0722627 	-0.0524294 	0 0.0724589 	-0.0521465 	0 0.0726662 	-0.0518474 	0 0.0744643 	-0.0488739 	0 0.0762531 	-0.0458924 	0 0.0780325 	-0.0429354 	0 0.0798426 	-0.0404148 	0 0.0812245 	-0.0384732 	0 0.0825995 	-0.036009 	0 0.0839619 	-0.0336969 	0 0.0853162 	-0.0316229 	0 0.0866504 	-0.0295507 	0 0.0881558 	-0.027179 	0 0.0883091 	-0.0268582 	0 0.0884623 	-0.0265781 	0 0.088615 	-0.0263069 	0 0.0887673 	-0.0260357 	0 0.0889372 	-0.025732 	0 0.0897139 	-0.0241626 	0 0.0904796 	-0.0225983 	0 0.0912343 	-0.0210396 	0 0.0919785 	-0.0195037 	0 0.0926869 	-0.0182901 	0 0.0932876 	-0.0167346 	0 0.0938742 	-0.0151835 	0 0.0944467 	-0.0136371 	0 0.095007 	-0.012271 	0 0.09554 	-0.0110338 	0 0.095858 	-0.00970355 	0 0.0961638 	-0.00837539 	0 0.0964564 	-0.00708566 	0 0.0967327 	-0.00597984 	0 0.0969954 	-0.00488857 	0 0.0970704 	-0.00371684 	0 0.0971346 	-0.00254558 	0 0.0971831 	-0.00145068 	0 0.0972144 	-0.000461541 	0 0.0972368 	0.000524751 	0 0.0970987 	0.0015883 	0 0.096951 	0.00265267 	0 0.0967864 	0.00365519 	0 0.0966022 	0.00456828 	0 0.0964094 	0.00548542 	0 0.0960807 	0.00647981 	0 0.0957432 	0.00747613 	0 0.0953942 	0.00845915 	0 0.0950166 	0.00932841 	0 0.0946286 	0.0102072 	0 0.0941246 	0.0111638 	0 0.0936123 	0.0121234 	0 0.0930915 	0.013086 	0 0.09255 	0.0139963 	0 0.0919803 	0.0148641 	0 0.0913111 	0.0158097 	0 0.090634 	0.0167596 	0 0.0899488 	0.0177136 	0 0.0892555 	0.0186718 	0 0.088528 	0.0196109 	0 0.0882689 	0.0199111 	0 0.0880092 	0.0202118 	0 0.0877486 	0.020513 	0 0.0874873 	0.0208148 	0 0.0872681 	0.0210677 	0 0.0866644 	0.0217574 	0 0.0860563 	0.0224503 	0 0.0854437 	0.0231464 	0 0.0848266 	0.0238457 	0 0.0841903 	0.0245649 	0 0.083221 	0.0256587 	0 0.0822168 	0.0267059 	0 0.0811937 	0.0277393 	0 0.0801623 	0.0287811 	0 0.0790722 	0.0298824 	0 0.07794 	0.0310361 	0 0.0767991 	0.0321986 	0 0.0756499 	0.0333695 	0 0.0744925 	0.0345487 	0 0.0732209 	0.0357873 	0 0.0730289 	0.035972 	0 0.0728367 	0.036157 	0 0.0726445 	0.0363422 	0 0.0724521 	0.0365276 	0 0.0722714 	0.0367019 	0 0.0711566 	0.037806 	0 0.070038 	0.0389187 	0 0.0689157 	0.04004 	0 0.0677902 	0.0411695 	0 0.0665431 	0.0424265 	0 0.0653526 	0.043632 	0 0.0641605 	0.0448447 	0 0.0629674 	0.0460641 	0 0.0617736 	0.0472896 	0 0.0609255 	0.0481643 	0 0.060551 	0.0485716 	0 0.0601766 	0.0489796 	0 0.0598024 	0.0493881 	0 0.0594284 	0.0497971 	0 0.0590329 	0.0502306 	0 0.0575185 	0.0518717 	0 0.0560102 	0.0535192 	0 0.0545092 	0.0551717 	0 0.0530167 	0.0568279 	0 0.0519617 	0.0580079 	0 0.0516889 	0.0583349 	0 0.0514165 	0.058662 	0 0.0511447 	0.0589892 	0 0.0508733 	0.0593163 	0 0.0505855 	0.0596639 	0 0.0493144 	0.0611624 	0 0.048055 	0.0626607 	0 0.0468081 	0.0641576 	0 0.045574 	0.0656526 	0 0.0445766 	0.0668716 	0 0.0438544 	0.067823 	0 0.0431378 	0.0687731 	0 0.0424267 	0.0697217 	0 0.0417213 	0.0706689 	0 0.0408617 	0.0718302 	0 0.0403529 	0.0724994 	0 0.0398473 	0.0731677 	0 0.0393449 	0.073835 	0 0.0388457 	0.0745013 	0 0.0383745 	0.0751331 	0 0.0372352 	0.0767669 	0 0.0361142 	0.0783947 	0 0.0350012 	0.0799774 	0 0.0339028 	0.0815408 	0 0.0329211 	0.0829512 	0 0.0321324 	0.0841729 	0 0.0313532 	0.0853892 	0 0.0305835 	0.0866001 	0 0.0298229 	0.0878056 	0 0.028792 	0.0894518 	0 0.0286578 	0.0896603 	0 0.0285238 	0.0898686 	0 0.0283901 	0.0900768 	0 0.0282567 	0.0902849 	0 0.0281245 	0.0904914 	0 0.0272056 	0.0919605 	0 0.0262977 	0.0934034 	0 0.0254035 	0.0948378 	0 0.0245226 	0.0962636 	0 0.0236875 	0.0976273 	0 0.0228506 	0.0990786 	0 0.0220257 	0.100522 	0 0.0212066 	0.101905 	0 0.0203978 	0.103271 	0 0.0196194 	0.104595 	0 0.0188403 	0.106 	0 0.0180714 	0.107397 	0 0.0173124 	0.108787 	0 0.0165601 	0.110123 	0 0.0158274 	0.111409 	0 0.0150931 	0.112773 	0 0.0143675 	0.11413 	0 0.0136506 	0.115479 	0 0.012942 	0.11682 	0 0.0122468 	0.118078 	0 0.011548 	0.119406 	0 0.0108569 	0.120726 	0 0.0101733 	0.122039 	0 0.00949708 	0.123344 	0 0.00883227 	0.124608 	0 0.0081939 	0.125842 	0 0.0075617 	0.12707 	0 0.00693553 	0.128291 	0 0.00631525 	0.129505 	0 0.00555252 	0.131002 	0 0.00542457 	0.131253 	0 0.00529686 	0.131504 	0 0.00516938 	0.131754 	0 0.00504215 	0.132004 	0 0.0048803 	0.132322 	0 0.00437346 	0.133308 	0 0.00387053 	0.134291 	0 0.00337145 	0.13527 	0 0.00287613 	0.136245 	0 0.0023851 	0.137217 	0 0.0017602 	0.138453 	0 0.00114159 	0.139679 	0 0.00052859 	0.1409 	0 -7.89262e-05 	0.142116 	0 -0.000680803 	0.143326 	0 -0.00128455 	0.144545 	0 -0.00188218 	0.145753 	0 -0.00247475 	0.146956 	0 -0.00306239 	0.148154 	0 -0.00364545 	0.149348 	0 -0.00408347 	0.150251 	0 -0.00451821 	0.151147 	0 -0.00495036 	0.152041 	0 -0.00537995 	0.152933 	0 -0.00547735 	0.153136 	0 -0.00568527 	0.153562 	0 -0.00589264 	0.153988 	0 -0.00609945 	0.154412 	0 -0.00630572 	0.154836 	0 -0.00651087 	0.155255 	0 -0.00707474 	0.15642 	0 -0.00763458 	0.157579 	0 -0.00819046 	0.158733 	0 -0.00874248 	0.159881 	0 -0.00928827 	0.161003 	0 -0.00983083 	0.162147 	0 -0.0103697 	0.163285 	0 -0.0109051 	0.164419 	0 -0.0114369 	0.165547 	0 -0.0119595 	0.166627 	0 -0.0124782 	0.16775 	0 -0.0129935 	0.168868 	0 -0.0135057 	0.16998 	0 -0.0140147 	0.171089 	0 -0.0145115 	0.172124 	0 -0.0150024 	0.173225 	0 -0.0154905 	0.174322 	0 -0.0159756 	0.175414 	0 -0.0164551 	0.176478 	0 -0.0169268 	0.177492 	0 -0.0173851 	0.17857 	0 -0.0178408 	0.179643 	0 -0.0182939 	0.180713 	0 -0.0187407 	0.181727 	0 -0.0191846 	0.182724 	0 -0.0196039 	0.183776 	0 -0.0200211 	0.184824 	0 -0.0204361 	0.185853 	0 -0.0208493 	0.186834