# vtk DataFile Version 2.0
track0
ASCII
DATASET POLYDATA
POINTS 20002 float
1.11022e-18 0.5 1.11022e-18
0.391304 0.5 1.11022e-18
0.391043 0.499564 1.11022e-18
0.390785 0.499126 1.11022e-18
0.390529 0.498687 1.11022e-18
0.390276 0.498246 1.11022e-18
0.39 0.497761 1.11022e-18
0.38913 0.496209 1.11022e-18
0.388291 0.49464 1.11022e-18
0.387481 0.493056 1.11022e-18
0.386699 0.491457 1.11022e-18
0.386019 0.49 1.11022e-18
0.385121 0.488 1.11022e-18
0.384266 0.485981 1.11022e-18
0.383453 0.483946 1.11022e-18
0.382678 0.481895 1.11022e-18
0.382002 0.48 1.11022e-18
0.381601 0.47882 1.11022e-18
0.381213 0.477635 1.11022e-18
0.380836 0.476447 1.11022e-18
0.38047 0.475256 1.11022e-18
0.38 0.473674 1.11022e-18
0.379791 0.472939 1.11022e-18
0.379586 0.472203 1.11022e-18
0.379385 0.471466 1.11022e-18
0.379188 0.470728 1.11022e-18
0.378998 0.47 1.11022e-18
0.378486 0.468 1.11022e-18
0.378002 0.465993 1.11022e-18
0.377544 0.46398 1.11022e-18
0.377112 0.461961 1.11022e-18
0.376716 0.46 1.11022e-18
0.376336 0.458 1.11022e-18
0.375978 0.455996 1.11022e-18
0.375642 0.453988 1.11022e-18
0.375326 0.451977 1.11022e-18
0.375035 0.45 1.11022e-18
0.37476 0.448 1.11022e-18
0.374502 0.445998 1.11022e-18
0.374262 0.443993 1.11022e-18
0.374038 0.441987 1.11022e-18
0.373832 0.44 1.11022e-18
0.373641 0.438 1.11022e-18
0.373463 0.435999 1.11022e-18
0.373299 0.433996 1.11022e-18
0.373149 0.431993 1.11022e-18
0.373012 0.43 1.11022e-18
0.372887 0.428 1.11022e-18
0.372774 0.425999 1.11022e-18
0.372671 0.423998 1.11022e-18
0.372579 0.421996 1.11022e-18
0.372497 0.42 1.11022e-18
0.372425 0.418 1.11022e-18
0.372362 0.416 1.11022e-18
0.372308 0.413999 1.11022e-18
0.372261 0.411998 1.11022e-18
0.372223 0.41 1.11022e-18
0.372193 0.408 1.11022e-18
0.372169 0.406 1.11022e-18
0.372152 0.404 1.11022e-18
0.372141 0.402 1.11022e-18
0.372136 0.4 1.11022e-18
0.372138 0.398 1.11022e-18
0.372144 0.396 1.11022e-18
0.372154 0.394 1.11022e-18
0.37217 0.392 1.11022e-18
0.372189 0.39 1.11022e-18
0.372214 0.388 1.11022e-18
0.372242 0.386 1.11022e-18
0.372272 0.384 1.11022e-18
0.372306 0.382 1.11022e-18
0.372343 0.38 1.11022e-18
0.372383 0.378 1.11022e-18
0.372425 0.376 1.11022e-18
0.372469 0.374 1.11022e-18
0.372515 0.372 1.11022e-18
0.372563 0.37 1.11022e-18
0.372613 0.368 1.11022e-18
0.372664 0.366 1.11022e-18
0.372715 0.364 1.11022e-18
0.372767 0.362 1.11022e-18
0.372821 0.36 1.11022e-18
0.372876 0.358 1.11022e-18
0.37293 0.356 1.11022e-18
0.372985 0.354 1.11022e-18
0.373039 0.352 1.11022e-18
0.373094 0.35 1.11022e-18
0.37315 0.348 1.11022e-18
0.373205 0.346 1.11022e-18
0.373258 0.344 1.11022e-18
0.373311 0.342 1.11022e-18
0.373364 0.34 1.11022e-18
0.373418 0.338 1.11022e-18
0.37347 0.336 1.11022e-18
0.373521 0.334 1.11022e-18
0.37357 0.332 1.11022e-18
0.373619 0.33 1.11022e-18
0.373668 0.328 1.11022e-18
0.373715 0.326 1.11022e-18
0.373761 0.324 1.11022e-18
0.373805 0.322 1.11022e-18
0.373848 0.32 1.11022e-18
0.373892 0.318 1.11022e-18
0.373933 0.316 1.11022e-18
0.373973 0.314 1.11022e-18
0.374011 0.312 1.11022e-18
0.374048 0.31 1.11022e-18
0.374085 0.308 1.11022e-18
0.37412 0.306 1.11022e-18
0.374154 0.304 1.11022e-18
0.374185 0.302 1.11022e-18
0.374217 0.3 1.11022e-18
0.374248 0.298 1.11022e-18
0.374277 0.296 1.11022e-18
0.374305 0.294 1.11022e-18
0.374331 0.292 1.11022e-18
0.374356 0.29 1.11022e-18
0.374382 0.288 1.11022e-18
0.374407 0.286 1.11022e-18
0.374429 0.284 1.11022e-18
0.374451 0.282 1.11022e-18
0.374473 0.28 1.11022e-18
0.374494 0.278 1.11022e-18
0.374515 0.276 1.11022e-18
0.374535 0.274 1.11022e-18
0.374554 0.272 1.11022e-18
0.374573 0.27 1.11022e-18
0.374593 0.268 1.11022e-18
0.374612 0.266 1.11022e-18
0.374631 0.264 1.11022e-18
0.374649 0.262 1.11022e-18
0.374668 0.26 1.11022e-18
0.374689 0.258 1.11022e-18
0.374709 0.256 1.11022e-18
0.374729 0.254 1.11022e-18
0.37475 0.252 1.11022e-18
0.374772 0.25 1.11022e-18
0.374796 0.248 1.11022e-18
0.374821 0.246 1.11022e-18
0.374846 0.244 1.11022e-18
0.374873 0.242 1.11022e-18
0.374902 0.24 1.11022e-18
0.374934 0.238 1.11022e-18
0.374967 0.236 1.11022e-18
0.375001 0.234 1.11022e-18
0.375038 0.232 1.11022e-18
0.375079 0.23 1.11022e-18
0.375122 0.228 1.11022e-18
0.375168 0.226 1.11022e-18
0.375217 0.224 1.11022e-18
0.37527 0.222 1.11022e-18
0.375327 0.22 1.11022e-18
0.375389 0.218 1.11022e-18
0.375455 0.216 1.11022e-18
0.375525 0.214 1.11022e-18
0.3756 0.212001 1.11022e-18
0.375681 0.21 1.11022e-18
0.375768 0.208 1.11022e-18
0.375861 0.206 1.11022e-18
0.375959 0.204001 1.11022e-18
0.376065 0.202002 1.11022e-18
0.376179 0.2 1.11022e-18
0.376301 0.198 1.11022e-18
0.376431 0.196 1.11022e-18
0.376569 0.194002 1.11022e-18
0.376716 0.192003 1.11022e-18
0.376875 0.19 1.11022e-18
0.377044 0.188 1.11022e-18
0.377224 0.186001 1.11022e-18
0.377415 0.184003 1.11022e-18
0.37762 0.182006 1.11022e-18
0.377839 0.18 1.11022e-18
0.378072 0.178 1.11022e-18
0.37832 0.176002 1.11022e-18
0.378585 0.174006 1.11022e-18
0.378866 0.172012 1.11022e-18
0.37917 0.17 1.11022e-18
0.379336 0.168967 1.11022e-18
0.379507 0.167935 1.11022e-18
0.379685 0.166904 1.11022e-18
0.379868 0.165874 1.11022e-18
0.38 0.165159 1.11022e-18
0.380195 0.164127 1.11022e-18
0.380396 0.163097 1.11022e-18
0.380604 0.162068 1.11022e-18
0.380818 0.16104 1.11022e-18
0.381043 0.16 1.11022e-18
0.381489 0.158 1.11022e-18
0.381966 0.156007 1.11022e-18
0.382473 0.154021 1.11022e-18
0.383015 0.152045 1.11022e-18
0.383614 0.15 1.11022e-18
0.384243 0.148 1.11022e-18
0.384915 0.146014 1.11022e-18
0.385634 0.144044 1.11022e-18
0.386401 0.142093 1.11022e-18
0.387287 0.14 1.11022e-18
0.387829 0.13882 1.11022e-18
0.388395 0.137651 1.11022e-18
0.388984 0.136493 1.11022e-18
0.389597 0.135348 1.11022e-18
0.39 0.134632 1.11022e-18
0.390539 0.133705 1.11022e-18
0.391095 0.132789 1.11022e-18
0.391668 0.131884 1.11022e-18
0.392259 0.13099 1.11022e-18
0.392942 0.13 1.11022e-18
0.394353 0.128047 1.11022e-18
0.395859 0.126166 1.11022e-18
0.397464 0.124368 1.11022e-18
0.39916 0.122657 1.11022e-18
0.4 0.1219 1.11022e-18
0.400445 0.12152 1.11022e-18
0.400896 0.121146 1.11022e-18
0.401352 0.120779 1.11022e-18
0.401813 0.120417 1.11022e-18
0.402359 0.12 1.11022e-18
0.403887 0.118869 1.11022e-18
0.405464 0.117808 1.11022e-18
0.407089 0.11682 1.11022e-18
0.408757 0.115908 1.11022e-18
0.41 0.115297 1.11022e-18
0.412 0.11439 1.11022e-18
0.414041 0.113578 1.11022e-18
0.416117 0.112864 1.11022e-18
0.418223 0.112238 1.11022e-18
0.42 0.111792 1.11022e-18
0.421673 0.111433 1.11022e-18
0.423356 0.111126 1.11022e-18
0.425046 0.110866 1.11022e-18
0.426744 0.110653 1.11022e-18
0.43 0.110334 1.11022e-18
0.431431 0.110267 1.11022e-18
0.432863 0.110229 1.11022e-18
0.434296 0.110218 1.11022e-18
0.435729 0.110235 1.11022e-18
0.44 0.110365 1.11022e-18
0.442 0.110537 1.11022e-18
0.443995 0.110755 1.11022e-18
0.445985 0.111019 1.11022e-18
0.447969 0.111328 1.11022e-18
0.45 0.111691 1.11022e-18
0.452 0.112094 1.11022e-18
0.453991 0.112541 1.11022e-18
0.455972 0.113029 1.11022e-18
0.457942 0.113557 1.11022e-18
0.46 0.114152 1.11022e-18
0.462 0.114775 1.11022e-18
0.463987 0.115439 1.11022e-18
0.46596 0.116142 1.11022e-18
0.467919 0.116884 1.11022e-18
0.47 0.117717 1.11022e-18
0.47108 0.118173 1.11022e-18
0.472155 0.118641 1.11022e-18
0.473226 0.11912 1.11022e-18
0.474291 0.11961 1.11022e-18
0.475118 0.12 1.11022e-18
0.476094 0.12047 1.11022e-18
0.477066 0.120949 1.11022e-18
0.478034 0.121438 1.11022e-18
0.478997 0.121935 1.11022e-18
0.48 0.122464 1.11022e-18
0.482 0.123544 1.11022e-18
0.483979 0.124662 1.11022e-18
0.485936 0.125817 1.11022e-18
0.487872 0.127007 1.11022e-18
0.49 0.128369 1.11022e-18
0.490489 0.128695 1.11022e-18
0.490976 0.129024 1.11022e-18
0.491462 0.129354 1.11022e-18
0.491946 0.129687 1.11022e-18
0.492397 0.13 1.11022e-18
0.493918 0.131064 1.11022e-18
0.495423 0.13215 1.11022e-18
0.496912 0.133258 1.11022e-18
0.498386 0.134386 1.11022e-18
0.5 0.135656 1.11022e-18
0.50107 0.136525 1.11022e-18
0.502131 0.137404 1.11022e-18
0.503184 0.138294 1.11022e-18
0.504228 0.139194 1.11022e-18
0.505144 0.14 1.11022e-18
0.506115 0.140869 1.11022e-18
0.507078 0.141747 1.11022e-18
0.508033 0.142633 1.11022e-18
0.50898 0.143528 1.11022e-18
0.51 0.14451 1.11022e-18
0.511119 0.145608 1.11022e-18
0.512226 0.146718 1.11022e-18
0.513321 0.147839 1.11022e-18
0.514404 0.148972 1.11022e-18
0.515368 0.15 1.11022e-18
0.516294 0.151006 1.11022e-18
0.517212 0.152021 1.11022e-18
0.51812 0.153044 1.11022e-18
0.519019 0.154075 1.11022e-18
0.52 0.15522 1.11022e-18
0.520804 0.156176 1.11022e-18
0.5216 0.157138 1.11022e-18
0.522389 0.158106 1.11022e-18
0.52317 0.159081 1.11022e-18
0.523896 0.16 1.11022e-18
0.525117 0.161568 1.11022e-18
0.526318 0.163151 1.11022e-18
0.527501 0.164748 1.11022e-18
0.528665 0.166359 1.11022e-18
0.53 0.168251 1.11022e-18
0.53024 0.168601 1.11022e-18
0.530479 0.168951 1.11022e-18
0.530717 0.169302 1.11022e-18
0.530955 0.169654 1.11022e-18
0.531187 0.17 1.11022e-18
0.532525 0.172 1.11022e-18
0.533836 0.174018 1.11022e-18
0.53512 0.176053 1.11022e-18
0.536379 0.178104 1.11022e-18
0.53751 0.18 1.11022e-18
0.538008 0.180856 1.11022e-18
0.538502 0.181715 1.11022e-18
0.538991 0.182576 1.11022e-18
0.539476 0.183439 1.11022e-18
0.54 0.184382 1.11022e-18
0.540616 0.185506 1.11022e-18
0.541226 0.186633 1.11022e-18
0.541828 0.187764 1.11022e-18
0.542424 0.188899 1.11022e-18
0.542994 0.19 1.11022e-18
0.544015 0.192 1.11022e-18
0.545016 0.19401 1.11022e-18
0.545996 0.196031 1.11022e-18
0.546957 0.19806 1.11022e-18
0.547853 0.2 1.11022e-18
0.548282 0.200952 1.11022e-18
0.548707 0.201906 1.11022e-18
0.549129 0.202862 1.11022e-18
0.549546 0.203819 1.11022e-18
0.55 0.204873 1.11022e-18
0.550436 0.205898 1.11022e-18
0.550869 0.206925 1.11022e-18
0.551296 0.207955 1.11022e-18
0.55172 0.208985 1.11022e-18
0.552132 0.21 1.11022e-18
0.552935 0.212 1.11022e-18
0.553722 0.214006 1.11022e-18
0.554494 0.216018 1.11022e-18
0.55525 0.218036 1.11022e-18
0.555971 0.22 1.11022e-18
0.556688 0.222 1.11022e-18
0.557392 0.224005 1.11022e-18
0.558083 0.226014 1.11022e-18
0.55876 0.228029 1.11022e-18
0.559409 0.23 1.11022e-18
[...]
POINT_DATA 20002
 FIELD attributes 1
U 3 20002 float
-1.99571e-19 	-8.98147e-18 	0
0.0593964 	0.099336 	0 0.0590181 	0.0999749 	0 0.0586409 	0.100612 	0 0.0582651 	0.101248 	0 0.0578904 	0.101882 	0 0.0574807 	0.102577 	0 0.0560855 	0.104799 	0 0.0547094 	0.107 	0 0.0533522 	0.109181 	0 0.0520139 	0.111341 	0 0.050821 	0.113275 	0 0.0491663 	0.116098 	0 0.0475401 	0.11889 	0 0.0459417 	0.121652 	0 0.0443716 	0.124302 	0 0.042955 	0.126656 	0 0.0420688 	0.128222 	0 0.0411909 	0.129778 	0 0.0403212 	0.131322 	0 0.0394595 	0.132857 	0 0.0383293 	0.134874 	0 0.0377911 	0.135788 	0 0.0372561 	0.136699 	0 0.0367245 	0.137606 	0 0.0361961 	0.138509 	0 0.0356787 	0.139395 	0 0.0342474 	0.141959 	0 0.0328395 	0.144401 	0 0.0314541 	0.146815 	0 0.0300904 	0.149203 	0 0.0287893 	0.151491 	0 0.0274877 	0.153979 	0 0.0262057 	0.156443 	0 0.0249364 	0.158727 	0 0.023685 	0.160986 	0 0.0224738 	0.163179 	0 0.0212967 	0.165549 	0 0.0201358 	0.167897 	0 0.018988 	0.170198 	0 0.0178424 	0.172336 	0 0.0167233 	0.17443 	0 0.015672 	0.176681 	0 0.0146337 	0.178914 	0 0.013608 	0.181127 	0 0.0125779 	0.183213 	0 0.0115555 	0.185203 	0 0.0106346 	0.187333 	0 0.00972391 	0.189447 	0 0.00882315 	0.191544 	0 0.00791972 	0.193571 	0 0.00700015 	0.195452 	0 0.00621491 	0.197456 	0 0.00543751 	0.199446 	0 0.00466773 	0.201422 	0 0.00389774 	0.203361 	0 0.00308671 	0.205127 	0 0.00244153 	0.206997 	0 0.00180209 	0.208856 	0 0.00116826 	0.210704 	0 0.00053454 	0.212529 	0 -0.000163489 	0.214174 	0 -0.00066658 	0.215902 	0 -0.00116572 	0.217621 	0 -0.001661 	0.219332 	0 -0.00216048 	0.22102 	0 -0.00274335 	0.222537 	0 -0.0031059 	0.224113 	0 -0.00346599 	0.225684 	0 -0.00382366 	0.227249 	0 -0.00419635 	0.228782 	0 -0.00466509 	0.230162 	0 -0.00489306 	0.231577 	0 -0.00511974 	0.232988 	0 -0.00534516 	0.234396 	0 -0.00560363 	0.235759 	0 -0.00596283 	0.236993 	0 -0.00606666 	0.238237 	0 -0.00617007 	0.23948 	0 -0.00627308 	0.240722 	0 -0.00643391 	0.241902 	0 -0.00669163 	0.242981 	0 -0.00668606 	0.244047 	0 -0.00668066 	0.245113 	0 -0.00667543 	0.246179 	0 -0.00675791 	0.24717 	0 -0.00692564 	0.248085 	0 -0.00682908 	0.248965 	0 -0.00673303 	0.249848 	0 -0.00663747 	0.250732 	0 -0.00666209 	0.251527 	0 -0.00675434 	0.252271 	0 -0.00658773 	0.252961 	0 -0.00642174 	0.253655 	0 -0.00625637 	0.254353 	0 -0.00624338 	0.254949 	0 -0.00627678 	0.255514 	0 -0.00606229 	0.256013 	0 -0.00584838 	0.256515 	0 -0.00563505 	0.257022 	0 -0.00560352 	0.257418 	0 -0.00559606 	0.257799 	0 -0.00535592 	0.258105 	0 -0.00511622 	0.258416 	0 -0.00487695 	0.258732 	0 -0.00484438 	0.258926 	0 -0.00481464 	0.259119 	0 -0.00457011 	0.259234 	0 -0.00432583 	0.259353 	0 -0.0040977 	0.259467 	0 -0.00406405 	0.259469 	0 -0.00403041 	0.259471 	0 -0.00380106 	0.259395 	0 -0.00357175 	0.259324 	0 -0.00337394 	0.259237 	0 -0.00335402 	0.259046 	0 -0.00333408 	0.258855 	0 -0.00313736 	0.25859 	0 -0.00294052 	0.258328 	0 -0.00278755 	0.258042 	0 -0.00279764 	0.257658 	0 -0.00280775 	0.257272 	0 -0.00265902 	0.256816 	0 -0.00251009 	0.256363 	0 -0.00241505 	0.255878 	0 -0.00247002 	0.255298 	0 -0.00252513 	0.254717 	0 -0.00243796 	0.254068 	0 -0.00235062 	0.25342 	0 -0.00232588 	0.252733 	0 -0.00243928 	0.251955 	0 -0.00255305 	0.251174 	0 -0.00253989 	0.250327 	0 -0.00252672 	0.24948 	0 -0.00258472 	0.248585 	0 -0.00276902 	0.247606 	0 -0.00295408 	0.246621 	0 -0.00302673 	0.245569 	0 -0.0030997 	0.244514 	0 -0.00325352 	0.243405 	0 -0.00352028 	0.242219 	0 -0.00378841 	0.241027 	0 -0.00395803 	0.23976 	0 -0.00412856 	0.238489 	0 -0.00439202 	0.237157 	0 -0.00475207 	0.235759 	0 -0.00511435 	0.234352 	0 -0.00539163 	0.23286 	0 -0.00567068 	0.231361 	0 -0.00605854 	0.229796 	0 -0.00652228 	0.228178 	0 -0.00698951 	0.226547 	0 -0.00738505 	0.224818 	0 -0.00778358 	0.223077 	0 -0.00831182 	0.221267 	0 -0.00888981 	0.21942 	0 -0.00947311 	0.217554 	0 -0.00999809 	0.21557 	0 -0.0105277 	0.213569 	0 -0.011214 	0.211505 	0 -0.0119177 	0.209415 	0 -0.0126294 	0.207298 	0 -0.0132965 	0.205038 	0 -0.0140012 	0.202752 	0 -0.0148348 	0.200429 	0 -0.0156779 	0.198076 	0 -0.0165333 	0.195686 	0 -0.0173581 	0.193122 	0 -0.0182716 	0.190543 	0 -0.0192584 	0.18794 	0 -0.0202584 	0.185298 	0 -0.0212776 	0.182602 	0 -0.0222849 	0.1797 	0 -0.0234298 	0.176831 	0 -0.0245922 	0.173913 	0 -0.0257729 	0.170944 	0 -0.0269852 	0.16789 	0 -0.0276282 	0.166208 	0 -0.0283172 	0.16456 	0 -0.0290125 	0.162895 	0 -0.0297143 	0.161213 	0 -0.0302063 	0.160034 	0 -0.0308971 	0.15828 	0 -0.031594 	0.156507 	0 -0.0322971 	0.154714 	0 -0.0330064 	0.152901 	0 -0.0337572 	0.151152 	0 -0.035251 	0.147512 	0 -0.0367724 	0.143788 	0 -0.038323 	0.139976 	0 -0.0399192 	0.136192 	0 -0.0416378 	0.13236 	0 -0.0433964 	0.128187 	0 -0.0451933 	0.123903 	0 -0.0470415 	0.119732 	0 -0.0489389 	0.115605 	0 -0.0510423 	0.110999 	0 -0.052296 	0.10809 	0 -0.0535671 	0.105253 	0 -0.0548555 	0.102531 	0 -0.0561621 	0.0997586 	0 -0.0570004 	0.0979725 	0 -0.0580163 	0.0956314 	0 -0.0590419 	0.093256 	0 -0.0600772 	0.0908459 	0 -0.0610995 	0.0886153 	0 -0.0622519 	0.086118 	0 -0.0646347 	0.080725 	0 -0.0670604 	0.0751724 	0 -0.0694499 	0.0700255 	0 -0.0718643 	0.0647952 	0 -0.0730098 	0.0622796 	0 -0.073542 	0.0610038 	0 -0.0740746 	0.0597216 	0 -0.0745878 	0.0585273 	0 -0.0750927 	0.0573683 	0 -0.0756854 	0.0560015 	0 -0.0773523 	0.0520507 	0 -0.0790157 	0.0480554 	0 -0.0806612 	0.044069 	0 -0.082204 	0.0404496 	0 -0.0833198 	0.0377938 	0 -0.084851 	0.0337295 	0 -0.0863351 	0.0297193 	0 -0.0876835 	0.026045 	0 -0.0890053 	0.0223658 	0 -0.0900844 	0.0192969 	0 -0.0909197 	0.0165815 	0 -0.0916487 	0.0140912 	0 -0.0923615 	0.0116056 	0 -0.0930579 	0.00912646 	0 -0.0943574 	0.00440042 	0 -0.0947493 	0.00253427 	0 -0.095114 	0.00070924 	0 -0.0954691 	-0.00111005 	0 -0.0958145 	-0.002923 	0 -0.0968159 	-0.00830943 	0 -0.0970735 	-0.0106354 	0 -0.0972967 	-0.0129145 	0 -0.0975055 	-0.0151812 	0 -0.0977001 	-0.0174345 	0 -0.0978856 	-0.019736 	0 -0.0979807 	-0.0220104 	0 -0.0979799 	-0.024135 	0 -0.0979634 	-0.026239 	0 -0.0979368 	-0.0283303 	0 -0.0978984 	-0.030512 	0 -0.0977846 	-0.0326658 	0 -0.0976607 	-0.0348038 	0 -0.0975271 	-0.0369253 	0 -0.0973237 	-0.0389356 	0 -0.0970882 	-0.041055 	0 -0.0969266 	-0.0421748 	0 -0.0967633 	-0.0432902 	0 -0.0965983 	-0.0444013 	0 -0.0964317 	-0.0455079 	0 -0.0963005 	-0.0463675 	0 -0.0961396 	-0.0474008 	0 -0.0959774 	-0.0484303 	0 -0.0958137 	-0.0494562 	0 -0.0956487 	-0.0504782 	0 -0.0954745 	-0.0515439 	0 -0.095041 	-0.0536898 	0 -0.0946025 	-0.0558174 	0 -0.0941529 	-0.057915 	0 -0.093666 	-0.0599339 	0 -0.0931234 	-0.0621624 	0 -0.092975 	-0.0626728 	0 -0.0928265 	-0.0631823 	0 -0.0926781 	-0.0636908 	0 -0.0925296 	-0.0641983 	0 -0.0923909 	-0.0646718 	0 -0.0919087 	-0.0663236 	0 -0.0914266 	-0.0679664 	0 -0.0909444 	-0.0695998 	0 -0.0904624 	-0.0712237 	0 -0.0899294 	-0.0730099 	0 -0.0895129 	-0.0741704 	0 -0.0890971 	-0.0753256 	0 -0.088682 	-0.0764755 	0 -0.0882677 	-0.0776199 	0 -0.0879017 	-0.078628 	0 -0.0875052 	-0.0797531 	0 -0.0871094 	-0.0808735 	0 -0.0867144 	-0.0819894 	0 -0.0863202 	-0.0831005 	0 -0.0858927 	-0.0843027 	0 -0.0853484 	-0.0855663 	0 -0.0848061 	-0.0868237 	0 -0.0842658 	-0.0880746 	0 -0.0837276 	-0.0893192 	0 -0.0832456 	-0.0904323 	0 -0.082779 	-0.0915771 	0 -0.0823142 	-0.0927173 	0 -0.081851 	-0.0938528 	0 -0.0813896 	-0.0949836 	0 -0.0808829 	-0.0962251 	0 -0.0804067 	-0.0971774 	0 -0.0799325 	-0.0981264 	0 -0.0794604 	-0.0990721 	0 -0.0789902 	-0.100014 	0 -0.0785511 	-0.100895 	0 -0.0778207 	-0.102503 	0 -0.0770957 	-0.104103 	0 -0.0763762 	-0.105695 	0 -0.0756622 	-0.107279 	0 -0.0748364 	-0.109116 	0 -0.0746677 	-0.109418 	0 -0.0744993 	-0.109721 	0 -0.0743313 	-0.110023 	0 -0.0741635 	-0.110325 	0 -0.0739987 	-0.110621 	0 -0.0730796 	-0.112491 	0 -0.0721627 	-0.114331 	0 -0.07123 	-0.116091 	0 -0.0703056 	-0.117839 	0 -0.0694648 	-0.119432 	0 -0.0691083 	-0.120209 	0 -0.0687533 	-0.120984 	0 -0.0683997 	-0.121757 	0 -0.0680476 	-0.122528 	0 -0.0676657 	-0.123366 	0 -0.0671638 	-0.124244 	0 -0.0666649 	-0.125119 	0 -0.0661689 	-0.125993 	0 -0.0656758 	-0.126864 	0 -0.0652014 	-0.127706 	0 -0.0643988 	-0.129388 	0 -0.0636054 	-0.131065 	0 -0.0628194 	-0.132732 	0 -0.0619907 	-0.134258 	0 -0.0612092 	-0.135702 	0 -0.0608583 	-0.13648 	0 -0.060509 	-0.137256 	0 -0.0601613 	-0.138031 	0 -0.0598152 	-0.138803 	0 -0.0594369 	-0.13965 	0 -0.0590353 	-0.140355 	0 -0.0586357 	-0.14106 	0 -0.0582382 	-0.141764 	0 -0.0578428 	-0.142467 	0 -0.0574563 	-0.143157 	0 -0.0567643 	-0.144674 	0 -0.0560649 	-0.14615 	0 -0.0553228 	-0.147496 	0 -0.0545871 	-0.148837 	0 -0.0538791 	-0.150132 	0 -0.0532355 	-0.151605 	0 -0.0525979 	-0.153073 	0 -0.0519664 	-0.154536 	0 -0.0513408 	-0.155994 	0 -0.0507026 	-0.157333 	0 -0.0505908 	-0.157591 	0 -0.0504792 	-0.15785 	0 -0.0503678 	-0.158108 	0 -0.0502565 	-0.158366 	0 -0.0501415 	-0.158633 	0 -0.0496061 	-0.159584 	0 -0.0490744 	-0.160535 	0 -0.0485464 	-0.161484 	0 -0.048022 	-0.162432 	0 -0.0475086 	-0.163365 	0 -0.0469532 	-0.164678 	0 -0.0463824 	-0.16594 	0 -0.0457543 	-0.16705 	0 -0.0451306 	-0.168156 	0 -0.0445204 	-0.169243 	0 -0.0439878 	-0.1705 	0 -0.0434594 	-0.171754 	0 -0.0429349 	-0.173004 	0 -0.0423737 	-0.174156 	0 -0.0417731 	-0.175172 	0 -0.0412979 	-0.176255 	0 -0.0408253 	-0.177335 	0 -0.0403554 	-0.178412 	0 -0.039888 	-0.179485 	0 -0.0393422 	-0.18074 	0 -0.039314 	-0.180789 	0 -0.0392859 	-0.180838 	0 -0.0392578 	-0.180886 	0 -0.0392297 	-0.180935 	0 -0.0392016 	-0.180983 	0 -0.0386541 	-0.181871 	0 -0.0381028 	-0.182741 	0 -0.0375546 	-0.18361 	0 -0.0370093 	-0.184478 	0 -0.0364715 	-0.185338 	0 -0.0360189 	-0.186371 	0 -0.0355036 	-0.18725 	0 -0.0349527 	-0.188039 	0 -0.0344041 	-0.188826 	0 -0.0338615 	-0.189605 	0 -0.0334081 	-0.190559 	0 -0.0329569 	-0.191512 	0 -0.0324504 	-0.19233 	0 -0.0318918 	-0.193023 	0 -0.0313381 	-0.193708 	0 -0.0308773 	-0.194569 	0 -0.030418 	-0.195428 	0 -0.0299604 	-0.196283 	0 -0.0294394 	-0.19699 	0 -0.028869 	-0.197569 	0 -0.0283947 	-0.198323 	0 -0.0279216 	-0.199073 	0 -0.0274496 	-0.199819 	0 -0.0269788 	-0.200562 	0 -0.0264229 	-0.201104 	0 -0.0259627 	-0.201695 	0 -0.0255033 	-0.202282 	0 -0.0250444 	-0.202864 	0 -0.0245863 	-0.203443 	0 -0.0240302 	-0.204142 	0 -0.0240171 	-0.204153 	0 -0.0240039 	-0.204164 	0 -0.0239908 	-0.204176 	0 -0.0239777 	-0.204187 	0 -0.0239645 	-0.204198 	0 -0.0234288 	-0.204528 	0 -0.0228916 	-0.204852 	0 -0.0223552 	-0.205175 	0 -0.0218197 	-0.205497 	0 -0.0212867 	-0.205816 	0 -0.0208132 	-0.206211 	0 -0.0202519 	-0.206412 	0 -0.0196911 	-0.206611 	0 -0.0191307 	-0.206807 	0 -0.0185722 	-0.207 	0 -0.0181267 	-0.207376 	0 -0.0175626 	-0.207495 	0 -0.0169743 	-0.207559 	0 -0.0163859 	-0.207619 	0 -0.0157989 	-0.207676 	0 -0.0153281 	-0.20791 	0 -0.0147995 	-0.20802 	0 -0.014181 	-0.20794 	0 -0.013562 	-0.207855 	0 -0.0129437 	-0.207765 	0 -0.0124436 	-0.207844 	0 -0.0119372 	-0.207907 	0 -0.0112859 	-0.207673 	0 -0.0106336 	-0.207434 	0 -0.00998137 	-0.207189 	0 -0.00944783 	-0.207099 	0 -0.00891354 	-0.207005 	0 -0.0082614 	-0.206678 	0 -0.00757291 	-0.206277 	0 -0.00688377 	-0.205869 	0 -0.00631234 	-0.205599 	0 -0.0057397 	-0.205322 	0 -0.00507685 	-0.204876 	0 -0.00434885 	-0.204305 	0 -0.00361936 	-0.203726 	0 -0.00300507 	-0.203263 	0 -0.00238902 	-0.202793 	0 -0.00169813 	-0.20219 	0 -0.000926681 	-0.201442 	0 -0.000152727 	-0.200684 	0 0.00051002 	-0.200018 	0 0.00117521 	-0.199343 	0 0.00191287 	-0.198548 	0 0.00273293 	-0.197617 	0 0.00355679 	-0.196674 	0 0.00427472 	-0.195792 	0 0.00499593 	-0.1949 	0 0.00580088 	-0.193884 	0 0.00667672 	-0.192761 	0 0.00755812 	-0.191623 	0 0.00833981 	-0.190514 	0 0.00912582 	-0.189391 	0 0.010021 	-0.188131 	0 0.0109623 	-0.186807 	0 0.0119115 	-0.185462 	0 0.0127678 	-0.184109 	0 0.0136301 	-0.18274 	0 0.0146414 	-0.181223 	0 0.0156602 	-0.179685 	0 0.0166909 	-0.17812 	0 0.0176351 	-0.176506 	0 0.0186433 	-0.174838 	0 0.0197455 	-0.173096 	0 0.0208574 	-0.171329 	0 0.0219872 	-0.169525 	0 0.0230356 	-0.167628 	0 0.0242245 	-0.165673 	0 0.0254368 	-0.163688 	0 0.0266616 	-0.161672 	0 0.0279141 	-0.159602 	0 0.0285846 	-0.158381 	0 0.0293184 	-0.15716 	0 0.030057 	-0.155928 	0 0.0308005 	-0.154685 	0 0.0313327 	-0.153794 	0 0.0319696 	-0.152633 	0 0.0326098 	-0.151463 	0 0.0332535 	-0.150282 	0 0.0339007 	-0.149091 	0 0.0345974 	-0.147932 	0 0.0360212 	-0.145313 	0 0.0374625 	-0.142646 	0 0.038922 	-0.139929 	0 0.0404366 	-0.137237 	0 0.042082 	-0.134514 	0 0.0436756 	-0.131528 	0 0.0452919 	-0.128485 	0 0.0469884 	-0.125537 	0 0.0487469 	-0.122631 	0 0.0506452 	-0.119473 	0 0.0518406 	-0.117214 	0 0.0530833 	-0.115037 	0 0.0543717 	-0.112938 	0 0.0556735 	-0.11081 	0 0.0565636 	-0.10935 	0 0.0573199 	-0.107979 	0 0.05808 	-0.106597 	0 0.0588437 	-0.105203 	0 0.0596277 	-0.103903 	0 0.0604688 	-0.102559 	0 0.0625154 	-0.0988892 	0 0.0645877 	-0.0951475 	0 0.0667222 	-0.0915713 	0 0.068912 	-0.0881297 	0 0.0716204 	-0.0838356 	0 0.0719116 	-0.0833119 	0 0.0722033 	-0.0827872 	0 0.0725028 	-0.0823075 	0 0.072806 	-0.0818468 	0 0.0730921 	-0.0814118 	0 0.0751341 	-0.0779041 	0 0.0771835 	-0.0743505 	0 0.0792553 	-0.0709192 	0 0.0813591 	-0.0677334 	0 0.0843044 	-0.0632255 	0 0.0844599 	-0.0629568 	0 0.0846154 	-0.0626879 	0 0.0847715 	-0.0624241 	0 0.0849317 	-0.0621917 	0 0.0850885 	-0.0619641 	0 0.0869548 	-0.0588222 	0 0.0888092 	-0.0556662 	0 0.0906587 	-0.0526036 	0 0.0925199 	-0.0498452 	0 0.0939714 	-0.0476691 	0 0.0948476 	-0.0461218 	0 0.0957188 	-0.0446341 	0 0.0965873 	-0.043277 	0 0.097449 	-0.0419191 	0 0.0986184 	-0.0400601 	0 0.0990274 	-0.039341 	0 0.0994347 	-0.0386225 	0 0.0998404 	-0.0379047 	0 0.100248 	-0.0372308 	0 0.100648 	-0.0366331 	0 0.101671 	-0.0347097 	0 0.10268 	-0.0327896 	0 0.103672 	-0.0308735 	0 0.104656 	-0.0291559 	0 0.105564 	-0.0276076 	0 0.106315 	-0.0259237 	0 0.107051 	-0.0242425 	0 0.107765 	-0.0227322 	0 0.108465 	-0.0212665 	0 0.109125 	-0.0198571 	0 0.109639 	-0.0183157 	0 0.110124 	-0.0168905 	0 0.110589 	-0.0155354 	0 0.111042 	-0.0141807 	0 0.111473 	-0.0128562 	0 0.111762 	-0.0114277 	0 0.112013 	-0.0101279 	0 0.112253 	-0.00882752 	0 0.112482 	-0.00752674 	0 0.112698 	-0.00624108 	0 0.112762 	-0.00489511 	0 0.1128 	-0.00360809 	0 0.112828 	-0.00231964 	0 0.112845 	-0.00102991 	0 0.112852 	0.00025521 	0 0.112704 	0.00159661 	0 0.112534 	0.00290346 	0 0.112354 	0.00421271 	0 0.112165 	0.00552418 	0 0.111965 	0.00684077 	0 0.111616 	0.00824907 	0 0.11124 	0.009602 	0 0.110853 	0.0109585 	0 0.110457 	0.0123183 	0 0.110048 	0.0136949 	0 0.109511 	0.0152467 	0 0.108924 	0.0166701 	0 0.108328 	0.0180984 	0 0.107723 	0.0195313 	0 0.107096 	0.0209981 	0 0.106342 	0.02265 	0 0.105577 	0.0243019 	0 0.104766 	0.025828 	0 0.103946 	0.0273604 	0 0.103088 	0.0289538 	0 0.102103 	0.0307189 	0 0.101109 	0.0324891 	0 0.100107 	0.0342639 	0 0.0990953 	0.0360398 	0 0.097987 	0.0378085 	0 0.0975577 	0.0384764 	0 0.0971277 	0.039145 	0 0.096697 	0.0398143 	0 0.0962655 	0.0404844 	0 0.0959105 	0.0410355 	0 0.0950696 	0.0423739 	0 0.0942261 	0.0437161 	0 0.0933802 	0.0450618 	0 0.0925322 	0.0464106 	0 0.0916227 	0.0478569 	0 0.0901343 	0.0501416 	0 0.0886441 	0.0524296 	0 0.0871531 	0.0547192 	0 0.0856586 	0.0569851 	0 0.083923 	0.0595637 	0 0.0836772 	0.0599159 	0 0.0834316 	0.0602681 	0 0.0831862 	0.0606204 	0 0.0829409 	0.0609727 	0 0.0827098 	0.0613048 	0 0.0811205 	0.0636738 	0 0.0795391 	0.0660462 	0 0.0779668 	0.0684201 	0 0.0764047 	0.0707937 	0 0.0744894 	0.0737228 	0 0.0738734 	0.0746217 	0 0.0732599 	0.0755196 	0 0.0726488 	0.0764164 	0 0.0720401 	0.0773119 	0 0.0714928 	0.0781194 	0 0.0698055 	0.0807112 	0 0.0681379 	0.0832951 	0 0.0664908 	0.0858693 	0 0.064865 	0.088432 	0 0.0626929 	0.0918851 	0 0.0624985 	0.0921788 	0 0.0623045 	0.0924723 	0 0.0621109 	0.0927656 	0 0.0619176 	0.0930587 	0 0.0617285 	0.0933458 	0 0.0598104 	0.0963658 	0 0.0579289 	0.099292 	0 0.0560825 	0.102187 	0 0.054271 	0.105052 	0 0.052778 	0.107432 	0 0.0516025 	0.109399 	0 0.0504416 	0.111352 	0 0.0492952 	0.113292 	0 0.0481631 	0.11522 	0 0.0466397 	0.117828 	0 0.0462592 	0.118446 	0 0.0458805 	0.119063 	0 0.0455035 	0.119679 	0 0.0451282 	0.120293 	0 0.0447611 	0.120895 	0 0.0431625 	0.123593 	0 0.0415978 	0.126182 	0 0.0400618 	0.128742 	0 0.0385539 	0.131277 	0 0.0371609 	0.133636 	0 0.0357041 	0.136242 	0 0.0342723 	0.138824 	0 0.0328652 	0.141364 	0 0.0314849 	0.143757 	0 0.030176 	0.14604 	0 0.0288399 	0.148534 	0 0.0275247 	0.151005 	0 0.0262297 	0.153454 	0 0.0249542 	0.15588 	0 0.0237245 	0.158097 	0 0.02253 	0.160426 	0 0.021352 	0.162734 	0 0.02019 	0.165022 	0 0.0190434 	0.167291 	0 0.0177838 	0.16978 	0 0.0176219 	0.170112 	0 0.0174604 	0.170443 	0 0.0172992 	0.170773 	0 0.0171383 	0.171103 	0 0.0169594 	0.17147 	0 0.0160086 	0.173365 	0 0.0150688 	0.175249 	0 0.0141396 	0.177121 	0 0.0132208 	0.178981 	0 0.0123172 	0.18082 	0 0.0113213 	0.183008 	0 0.0103263 	0.185134 	0 0.0093433 	0.187246 	0 0.008372 	0.189344 	0 0.00741544 	0.191422 	0 0.00656395 	0.19354 	0 0.0056924 	0.195565 	0 0.00483028 	0.197579 	0 0.00397733 	0.19958 	0 0.00313455 	0.201567 	0 0.00243439 	0.203591 	0 0.00169171 	0.20551 	0 0.00095619 	0.207419 	0 0.000227628 	0.209318 	0 -0.000493887 	0.211207 	0 -0.00104046 	0.213113 	0 -0.00164992 	0.214918 	0 -0.00225421 	0.216714 	0 -0.00285345 	0.218503 	0 -0.00344787 	0.220285 	0 -0.00384442 	0.222054 	0 -0.00431859 	0.223734 	0 -0.00478927 	0.225409 	0 -0.00525654 	0.227078 	0 -0.00572063 	0.228742 	0 -0.00597704 	0.230357 	0 -0.00631727 	0.231903 	0 -0.00665539 	0.233444 	0 -0.00699144 	0.234982 	0 -0.00732556 	0.236517 	0 -0.0074577 	0.237965 	0 -0.00766951 	0.239364 	0 -0.00788028 	0.240761 	0 -0.00809002 	0.242156 	0 -0.00829879 	0.243548 	0 -0.00832698 	0.24482 	0 -0.00842013 	0.246061 	0 -0.00851299 	0.247301 	0 -0.00860559 	0.248541 	0 -0.00869792 	0.24978 	0 -0.00864492 	0.250867 	0 -0.00863322 	0.25194 	0 -0.00862174 	0.253013 	0 -0.00861048 	0.254087 	0 -0.00859944 	0.255162 	0 -0.00855295 	0.255481 	0 -0.0085178 	0.255797 	0 -0.00848271 	0.256113 	0 -0.00844768 	0.25643 	0 -0.00841062 	0.256765 	0 -0.00834536 	0.257317 	0 -0.00828032 	0.257869 	0 -0.00821548 	0.258423 	0 -0.00815086 	0.258977 	0 -0.00810529 	0.259518 	0 -0.00793486 	0.260188 	0 -0.00776506 	0.260861 	0 -0.00759588 	0.261538 	0 -0.00742732 	0.262218 	0 -0.00730812 	0.262868 	0 -0.00709149 	0.263351 	0 -0.00687543 	0.263839 	0 -0.00665994 	0.26433 	0 -0.00644502 	0.264826 	0 -0.00630749 	0.265277 	0 -0.00606639 	0.265573 	0 -0.00582572 	0.265874 	0 -0.00558548 	0.266179 	0 -0.00534566 	0.266489 	0 -0.00520723 	0.266742 	0 -0.00496247 	0.266851 	0 -0.00471793 	0.266966 	0 -0.00447363 	0.267085 	0 -0.00422957 	0.267209 	0 -0.00410583 	0.267265 	0 -0.00387648 	0.267189 	0 -0.00364718 	0.267119 	0 -0.00341791 	0.267052 	0 -0.00318869 	0.26699 	0 -0.00309353 	0.266851 	0 -0.0028966 	0.266592 	0 -0.00269956 	0.266337 	0 -0.0025024 	0.266085 	0 -0.00230513 	0.265838 	0 -0.00225104 	0.265504 	0 -0.00210143 	0.265061 	0 -0.00195162 	0.264621 	0 -0.00180161 	0.264184 	0 -0.00165139 	0.26375 	0 -0.00164991 	0.263223 	0 -0.00156069 	0.262594 	0 -0.00147129 	0.261966 	0 -0.0013817 	0.261341 	0 -0.00129192 	0.260717 	0 -0.00135413 	0.259995 	0 -0.00133719 	0.259175 	0 -0.00132021 	0.258356 	0 -0.00130319 	0.257537 	0 -0.00128614 	0.256718 	0 -0.00142324 	0.255798 	0 -0.00148973 	0.254782 	0 -0.00155649 	0.253764 	0 -0.00162353 	0.252745 	0 -0.00169085 	0.251725 	0 -0.00191453 	0.250601 	0 -0.00207487 	0.249382 	0 -0.00223599 	0.248159 	0 -0.0023979 	0.246932 	0 -0.00256062 	0.245701 	0 -0.00288326 	0.244368 	0 -0.00314718 	0.242936 	0 -0.00341264 	0.241498 	0 -0.00367966 	0.240053 	0 -0.00394827 	0.238601 	0 -0.00438316 	0.237051 	0 -0.00476004 	0.235397 	0 -0.00513953 	0.233733 	0 -0.00552167 	0.232058 	0 -0.00590993 	0.23037 	0 -0.00646822 	0.228596 	0 -0.00696765 	0.226706 	0 -0.00747113 	0.224801 	0 -0.00797876 	0.222881 	0 -0.0085176 	0.220937 	0 -0.00919548 	0.218935 	0 -0.00982795 	0.216792 	0 -0.0104664 	0.214629 	0 -0.0111111 	0.212445 	0 -0.011819 	0.210235 	0 -0.0126285 	0.20798