# vtk DataFile Version 2.0
track0
ASCII
DATASET POLYDATA
POINTS 20002 float
1.11022e-18 0.5 1.11022e-18
0.391304 0.5 1.11022e-18
0.391043 0.499516 1.11022e-18
0.390786 0.499031 1.11022e-18
0.390531 0.498544 1.11022e-18
0.390279 0.498055 1.11022e-18
0.39 0.497508 1.11022e-18
0.389249 0.496006 1.11022e-18
0.388525 0.494491 1.11022e-18
0.387827 0.492964 1.11022e-18
0.387155 0.491425 1.11022e-18
0.38656 0.49 1.11022e-18
0.385759 0.488 1.11022e-18
0.384997 0.485984 1.11022e-18
0.384274 0.483955 1.11022e-18
0.383588 0.481913 1.11022e-18
0.38298 0.48 1.11022e-18
0.382384 0.47802 1.11022e-18
0.381818 0.476032 1.11022e-18
0.38128 0.474036 1.11022e-18
0.380769 0.472032 1.11022e-18
0.380279 0.47 1.11022e-18
0.380223 0.469755 1.11022e-18
0.380168 0.469509 1.11022e-18
0.380113 0.469264 1.11022e-18
0.380058 0.469019 1.11022e-18
0.38 0.468757 1.11022e-18
0.379614 0.467006 1.11022e-18
0.379246 0.465251 1.11022e-18
0.378895 0.463492 1.11022e-18
0.37856 0.46173 1.11022e-18
0.378247 0.46 1.11022e-18
0.377903 0.458 1.11022e-18
0.377576 0.455997 1.11022e-18
0.377266 0.453991 1.11022e-18
0.376974 0.451983 1.11022e-18
0.376701 0.45 1.11022e-18
0.376441 0.448 1.11022e-18
0.376194 0.445998 1.11022e-18
0.37596 0.443995 1.11022e-18
0.375739 0.441991 1.11022e-18
0.375532 0.44 1.11022e-18
0.375335 0.438 1.11022e-18
0.375149 0.435999 1.11022e-18
0.374971 0.433997 1.11022e-18
0.374804 0.431995 1.11022e-18
0.374646 0.43 1.11022e-18
0.374497 0.428 1.11022e-18
0.374355 0.425999 1.11022e-18
0.37422 0.423999 1.11022e-18
0.374092 0.421997 1.11022e-18
0.373971 0.42 1.11022e-18
0.373857 0.418 1.11022e-18
0.373747 0.416 1.11022e-18
0.373643 0.413999 1.11022e-18
0.373543 0.411998 1.11022e-18
0.373448 0.41 1.11022e-18
0.373359 0.408 1.11022e-18
0.373273 0.406 1.11022e-18
0.37319 0.404 1.11022e-18
0.37311 0.401999 1.11022e-18
0.373033 0.4 1.11022e-18
0.372961 0.398 1.11022e-18
0.372891 0.396 1.11022e-18
0.372822 0.394 1.11022e-18
0.372755 0.392 1.11022e-18
0.372691 0.39 1.11022e-18
0.37263 0.388 1.11022e-18
0.372569 0.386 1.11022e-18
0.37251 0.384 1.11022e-18
0.372451 0.382 1.11022e-18
0.372394 0.38 1.11022e-18
0.372339 0.378 1.11022e-18
0.372285 0.376 1.11022e-18
0.37223 0.374 1.11022e-18
0.372176 0.372 1.11022e-18
0.372123 0.37 1.11022e-18
0.372071 0.368 1.11022e-18
0.372019 0.366 1.11022e-18
0.371967 0.364 1.11022e-18
0.371916 0.362 1.11022e-18
0.371864 0.36 1.11022e-18
0.371813 0.358 1.11022e-18
0.371762 0.356 1.11022e-18
0.371711 0.354 1.11022e-18
0.37166 0.352 1.11022e-18
0.371608 0.35 1.11022e-18
0.371557 0.348 1.11022e-18
0.371506 0.346 1.11022e-18
0.371455 0.344 1.11022e-18
0.371403 0.342 1.11022e-18
0.371351 0.34 1.11022e-18
0.3713 0.338 1.11022e-18
0.371248 0.336 1.11022e-18
0.371197 0.334 1.11022e-18
0.371145 0.332 1.11022e-18
0.371092 0.33 1.11022e-18
0.371041 0.328 1.11022e-18
0.370989 0.326 1.11022e-18
0.370937 0.324 1.11022e-18
0.370885 0.322 1.11022e-18
0.370833 0.32 1.11022e-18
0.370782 0.318 1.11022e-18
0.370731 0.316 1.11022e-18
0.370679 0.314 1.11022e-18
0.370629 0.312 1.11022e-18
0.370578 0.31 1.11022e-18
0.370528 0.308 1.11022e-18
0.370478 0.306 1.11022e-18
0.370429 0.304 1.11022e-18
0.370381 0.302 1.11022e-18
0.370333 0.3 1.11022e-18
0.370286 0.298 1.11022e-18
0.37024 0.296 1.11022e-18
0.370194 0.294 1.11022e-18
0.37015 0.292 1.11022e-18
0.370107 0.29 1.11022e-18
0.370085 0.288994 1.11022e-18
0.370064 0.287988 1.11022e-18
0.370044 0.286981 1.11022e-18
0.370023 0.285975 1.11022e-18
0.37 0.284786 1.11022e-18
0.369982 0.283829 1.11022e-18
0.369963 0.282872 1.11022e-18
0.369946 0.281914 1.11022e-18
0.369928 0.280957 1.11022e-18
0.369911 0.28 1.11022e-18
0.369876 0.278 1.11022e-18
0.369843 0.276 1.11022e-18
0.369811 0.274 1.11022e-18
0.369782 0.272 1.11022e-18
0.369755 0.27 1.11022e-18
0.36973 0.268 1.11022e-18
0.369707 0.266 1.11022e-18
0.369687 0.264 1.11022e-18
0.369669 0.262 1.11022e-18
0.369655 0.26 1.11022e-18
0.369643 0.258 1.11022e-18
0.369634 0.256 1.11022e-18
0.369628 0.254 1.11022e-18
0.369626 0.252 1.11022e-18
0.369628 0.25 1.11022e-18
0.369632 0.248 1.11022e-18
0.369641 0.246 1.11022e-18
0.369654 0.244 1.11022e-18
0.369672 0.242 1.11022e-18
0.369693 0.24 1.11022e-18
0.36972 0.238 1.11022e-18
0.369751 0.236 1.11022e-18
0.369787 0.234 1.11022e-18
0.369829 0.232 1.11022e-18
0.369876 0.23 1.11022e-18
0.369901 0.229067 1.11022e-18
0.369927 0.228133 1.11022e-18
0.369955 0.2272 1.11022e-18
0.369984 0.226267 1.11022e-18
0.37 0.225759 1.11022e-18
0.370038 0.224607 1.11022e-18
0.370079 0.223455 1.11022e-18
0.370122 0.222304 1.11022e-18
0.370167 0.221152 1.11022e-18
0.370214 0.22 1.11022e-18
0.370301 0.218 1.11022e-18
0.370395 0.216 1.11022e-18
0.370497 0.214001 1.11022e-18
0.370608 0.212002 1.11022e-18
0.370727 0.21 1.11022e-18
0.370856 0.208 1.11022e-18
0.370994 0.206001 1.11022e-18
0.371143 0.204002 1.11022e-18
0.371302 0.202004 1.11022e-18
0.371472 0.2 1.11022e-18
0.371654 0.198 1.11022e-18
0.371848 0.196001 1.11022e-18
0.372056 0.194004 1.11022e-18
0.372276 0.192008 1.11022e-18
0.372512 0.19 1.11022e-18
0.372763 0.188 1.11022e-18
0.37303 0.186002 1.11022e-18
0.373314 0.184006 1.11022e-18
0.373615 0.182013 1.11022e-18
0.373939 0.18 1.11022e-18
0.374281 0.178 1.11022e-18
0.374645 0.176004 1.11022e-18
0.37503 0.174012 1.11022e-18
0.37544 0.172024 1.11022e-18
0.375884 0.17 1.11022e-18
0.376352 0.168 1.11022e-18
0.376849 0.166007 1.11022e-18
0.377377 0.164022 1.11022e-18
0.377938 0.162046 1.11022e-18
0.378558 0.16 1.11022e-18
0.378846 0.159112 1.11022e-18
0.379143 0.158227 1.11022e-18
0.379448 0.157344 1.11022e-18
0.379762 0.156465 1.11022e-18
0.38 0.155818 1.11022e-18
0.380439 0.154655 1.11022e-18
0.380893 0.153497 1.11022e-18
0.381365 0.152346 1.11022e-18
0.381854 0.151203 1.11022e-18
0.38239 0.15 1.11022e-18
0.383322 0.148 1.11022e-18
0.384316 0.14603 1.11022e-18
0.385374 0.144094 1.11022e-18
0.3865 0.142196 1.11022e-18
0.387916 0.14 1.11022e-18
0.388333 0.139417 1.11022e-18
0.388758 0.138839 1.11022e-18
0.389192 0.138268 1.11022e-18
0.389634 0.137704 1.11022e-18
0.39 0.13725 1.11022e-18
0.391198 0.1358 1.11022e-18
0.392451 0.134397 1.11022e-18
0.39376 0.133045 1.11022e-18
0.395123 0.13175 1.11022e-18
0.397124 0.13 1.11022e-18
0.397699 0.129556 1.11022e-18
0.398282 0.129122 1.11022e-18
0.398873 0.128699 1.11022e-18
0.399471 0.128286 1.11022e-18
0.4 0.127935 1.11022e-18
0.402 0.12665 1.11022e-18
0.404066 0.125473 1.11022e-18
0.406193 0.124411 1.11022e-18
0.408374 0.123464 1.11022e-18
0.41 0.122854 1.11022e-18
0.411715 0.122283 1.11022e-18
0.41345 0.121776 1.11022e-18
0.415201 0.121328 1.11022e-18
0.416967 0.120938 1.11022e-18
0.42 0.120371 1.11022e-18
0.42057 0.120297 1.11022e-18
0.421141 0.120228 1.11022e-18
0.421712 0.120164 1.11022e-18
0.422284 0.120105 1.11022e-18
0.423404 0.12 1.11022e-18
0.424723 0.119899 1.11022e-18
0.426044 0.119823 1.11022e-18
0.427366 0.119774 1.11022e-18
0.428689 0.11975 1.11022e-18
0.43 0.119752 1.11022e-18
0.432 0.119791 1.11022e-18
0.433998 0.119881 1.11022e-18
0.4357 0.12 1.11022e-18
0.43656 0.120078 1.11022e-18
0.437419 0.120166 1.11022e-18
0.438277 0.120262 1.11022e-18
0.439134 0.120367 1.11022e-18
0.44 0.120482 1.11022e-18
0.442 0.120768 1.11022e-18
0.443993 0.121099 1.11022e-18
0.445979 0.121473 1.11022e-18
0.447956 0.121889 1.11022e-18
0.45 0.122363 1.11022e-18
0.452 0.122871 1.11022e-18
0.453989 0.123421 1.11022e-18
0.455967 0.124011 1.11022e-18
0.457933 0.124637 1.11022e-18
0.46 0.125339 1.11022e-18
0.462 0.12606 1.11022e-18
0.463986 0.12682 1.11022e-18
0.465957 0.127616 1.11022e-18
0.467914 0.128448 1.11022e-18
0.47 0.12938 1.11022e-18
0.470265 0.129504 1.11022e-18
0.470529 0.129628 1.11022e-18
0.470794 0.129754 1.11022e-18
0.471058 0.12988 1.11022e-18
0.471308 0.13 1.11022e-18
0.473047 0.130839 1.11022e-18
0.474772 0.131705 1.11022e-18
0.476483 0.132598 1.11022e-18
0.478181 0.133516 1.11022e-18
0.48 0.134534 1.11022e-18
0.481882 0.135628 1.11022e-18
0.483746 0.136752 1.11022e-18
0.485591 0.137906 1.11022e-18
0.487418 0.139089 1.11022e-18
0.488777 0.14 1.11022e-18
0.489022 0.140168 1.11022e-18
0.489266 0.140336 1.11022e-18
0.48951 0.140505 1.11022e-18
0.489753 0.140675 1.11022e-18
0.49 0.140847 1.11022e-18
0.492 0.142252 1.11022e-18
0.493975 0.143692 1.11022e-18
0.495925 0.145166 1.11022e-18
0.49785 0.146672 1.11022e-18
0.5 0.14841 1.11022e-18
0.500379 0.148728 1.11022e-18
0.500757 0.149047 1.11022e-18
0.501134 0.149368 1.11022e-18
0.50151 0.149689 1.11022e-18
0.501871 0.15 1.11022e-18
0.503496 0.151408 1.11022e-18
0.505102 0.15284 1.11022e-18
0.506687 0.154294 1.11022e-18
0.508252 0.15577 1.11022e-18
0.51 0.157463 1.11022e-18
0.510508 0.157971 1.11022e-18
0.511014 0.15848 1.11022e-18
0.511518 0.158992 1.11022e-18
0.512019 0.159506 1.11022e-18
0.512497 0.16 1.11022e-18
0.513998 0.161564 1.11022e-18
0.515477 0.163149 1.11022e-18
0.516935 0.164753 1.11022e-18
0.518372 0.166376 1.11022e-18
0.52 0.168264 1.11022e-18
0.520291 0.168611 1.11022e-18
0.520581 0.168959 1.11022e-18
0.52087 0.169308 1.11022e-18
0.521158 0.169657 1.11022e-18
0.52144 0.17 1.11022e-18
0.523072 0.172 1.11022e-18
0.524674 0.174025 1.11022e-18
0.526246 0.176073 1.11022e-18
0.527788 0.178143 1.11022e-18
0.529131 0.18 1.11022e-18
0.529305 0.180247 1.11022e-18
0.529478 0.180494 1.11022e-18
0.529651 0.180741 1.11022e-18
0.529824 0.180988 1.11022e-18
0.53 0.181242 1.11022e-18
0.531213 0.182994 1.11022e-18
0.532406 0.184759 1.11022e-18
0.533579 0.186538 1.11022e-18
0.534733 0.188329 1.11022e-18
0.535784 0.19 1.11022e-18
0.536627 0.19137 1.11022e-18
0.537459 0.192748 1.11022e-18
0.53828 0.194132 1.11022e-18
0.53909 0.195522 1.11022e-18
0.54 0.197112 1.11022e-18
0.540324 0.19769 1.11022e-18
0.540646 0.198268 1.11022e-18
0.540966 0.198848 1.11022e-18
0.541285 0.199428 1.11022e-18
0.541596 0.2 1.11022e-18
0.542678 0.202 1.11022e-18
0.543739 0.204011 1.11022e-18
0.54478 0.206033 1.11022e-18
0.5458 0.208066 1.11022e-18
0.546748 0.21 1.11022e-18
0.547398 0.211359 1.11022e-18
0.54804 0.212722 1.11022e-18
0.548673 0.214089 1.11022e-18
0.549298 0.21546 1.11022e-18
0.55 0.217025 1.11022e-18
0.550262 0.21762 1.11022e-18
[...]
POINT_DATA 20002
 FIELD attributes 1
U 3 20002 float
-2.11517e-19 	-8.96821e-18 	0
0.0603274 	0.111896 	0 0.0598727 	0.112692 	0 0.0594197 	0.113485 	0 0.0589686 	0.114276 	0 0.0585192 	0.115065 	0 0.058019 	0.115943 	0 0.0565701 	0.118343 	0 0.0551416 	0.120719 	0 0.0537333 	0.12307 	0 0.0523449 	0.125397 	0 0.0510857 	0.127516 	0 0.0493616 	0.130665 	0 0.0476693 	0.133776 	0 0.0460044 	0.136812 	0 0.0443577 	0.139687 	0 0.0428502 	0.142328 	0 0.0413645 	0.145224 	0 0.0399036 	0.148085 	0 0.0384667 	0.150912 	0 0.0370531 	0.153707 	0 0.0356416 	0.156466 	0 0.0354812 	0.1568 	0 0.0353212 	0.157133 	0 0.0351615 	0.157466 	0 0.035002 	0.157799 	0 0.0348327 	0.158152 	0 0.0336659 	0.160476 	0 0.0325157 	0.162778 	0 0.0313816 	0.165058 	0 0.0302632 	0.167317 	0 0.0291817 	0.169511 	0 0.0280808 	0.172169 	0 0.0269428 	0.174641 	0 0.0258177 	0.177078 	0 0.0247083 	0.179491 	0 0.023629 	0.181848 	0 0.0227224 	0.184328 	0 0.0218199 	0.186768 	0 0.0208602 	0.189029 	0 0.0199122 	0.191269 	0 0.018983 	0.193473 	0 0.0182577 	0.195771 	0 0.0175414 	0.198055 	0 0.0167813 	0.200225 	0 0.0159835 	0.202293 	0 0.0151976 	0.204336 	0 0.0146397 	0.20645 	0 0.0140879 	0.208551 	0 0.013528 	0.210619 	0 0.0128689 	0.212513 	0 0.0122174 	0.214388 	0 0.0118106 	0.216311 	0 0.0114079 	0.218225 	0 0.011009 	0.22013 	0 0.0105014 	0.221879 	0 0.00997267 	0.223581 	0 0.00969824 	0.225308 	0 0.00942621 	0.227029 	0 0.00915652 	0.228744 	0 0.00879913 	0.230351 	0 0.00837891 	0.231873 	0 0.00821559 	0.233401 	0 0.00805355 	0.234924 	0 0.00789278 	0.236444 	0 0.00766677 	0.237893 	0 0.00733868 	0.239231 	0 0.0072637 	0.240556 	0 0.0071893 	0.24188 	0 0.00711547 	0.243201 	0 0.00700004 	0.244481 	0 0.00674611 	0.245631 	0 0.00673611 	0.246753 	0 0.00672629 	0.247875 	0 0.00671663 	0.248996 	0 0.00668999 	0.250102 	0 0.00649144 	0.25106 	0 0.0065235 	0.251981 	0 0.00655553 	0.252902 	0 0.00658754 	0.253823 	0 0.00661952 	0.254745 	0 0.00646598 	0.255515 	0 0.00651878 	0.256237 	0 0.0065715 	0.256959 	0 0.00662413 	0.257682 	0 0.00667667 	0.258406 	0 0.00656761 	0.259002 	0 0.00662231 	0.259528 	0 0.00667695 	0.260054 	0 0.00673152 	0.260581 	0 0.00678602 	0.261109 	0 0.00670488 	0.261532 	0 0.00674546 	0.261864 	0 0.00678602 	0.262198 	0 0.00682655 	0.262532 	0 0.00686705 	0.262866 	0 0.00679887 	0.263116 	0 0.00681186 	0.263259 	0 0.00682485 	0.263402 	0 0.00683784 	0.263545 	0 0.00685083 	0.263688 	0 0.00678213 	0.263767 	0 0.00675594 	0.26372 	0 0.00672973 	0.263674 	0 0.00670351 	0.263627 	0 0.00667727 	0.263579 	0 0.00659546 	0.263486 	0 0.00652002 	0.263251 	0 0.00644448 	0.263014 	0 0.00636885 	0.262776 	0 0.00629312 	0.262536 	0 0.00618613 	0.26227 	0 0.00605298 	0.261846 	0 0.00591958 	0.261419 	0 0.00578592 	0.260989 	0 0.005652 	0.260556 	0 0.00550818 	0.260113 	0 0.0054088 	0.259804 	0 0.00530928 	0.259494 	0 0.00520963 	0.259182 	0 0.00510985 	0.25887 	0 0.00499179 	0.258499 	0 0.00489677 	0.258189 	0 0.00480162 	0.257879 	0 0.00470635 	0.257568 	0 0.00461096 	0.257255 	0 0.00451544 	0.256942 	0 0.00425637 	0.256124 	0 0.00398871 	0.255293 	0 0.00372012 	0.254457 	0 0.0034506 	0.253616 	0 0.00318019 	0.25277 	0 0.00286047 	0.251775 	0 0.00251878 	0.250752 	0 0.00217565 	0.249723 	0 0.00183106 	0.248686 	0 0.00148505 	0.247643 	0 0.00109614 	0.246463 	0 0.000677182 	0.245245 	0 0.000256116 	0.244018 	0 -0.000167095 	0.242782 	0 -0.000592457 	0.241537 	0 -0.00105981 	0.240161 	0 -0.00155902 	0.238743 	0 -0.00206121 	0.237314 	0 -0.00256642 	0.235873 	0 -0.00307476 	0.23442 	0 -0.00363102 	0.232832 	0 -0.00421393 	0.231209 	0 -0.00480092 	0.22957 	0 -0.00539206 	0.227917 	0 -0.0059877 	0.226247 	0 -0.00628975 	0.225404 	0 -0.00660163 	0.22455 	0 -0.00691468 	0.223693 	0 -0.00722892 	0.222831 	0 -0.0074006 	0.22236 	0 -0.00778943 	0.221274 	0 -0.00818004 	0.220181 	0 -0.00857245 	0.21908 	0 -0.00896669 	0.217973 	0 -0.00937509 	0.216855 	0 -0.01013 	0.214781 	0 -0.0108917 	0.212681 	0 -0.0116602 	0.210556 	0 -0.0124358 	0.208404 	0 -0.0132567 	0.206223 	0 -0.0141098 	0.203899 	0 -0.0149717 	0.201544 	0 -0.0158427 	0.199157 	0 -0.0167229 	0.196737 	0 -0.0176807 	0.194303 	0 -0.0186425 	0.191708 	0 -0.0196158 	0.189073 	0 -0.020601 	0.186398 	0 -0.0216086 	0.183691 	0 -0.0227095 	0.180998 	0 -0.0237953 	0.178098 	0 -0.0248963 	0.17515 	0 -0.0260131 	0.17215 	0 -0.0271957 	0.169187 	0 -0.0284318 	0.166171 	0 -0.0296644 	0.162921 	0 -0.0309174 	0.159608 	0 -0.032216 	0.156305 	0 -0.0335701 	0.153034 	0 -0.0349779 	0.14962 	0 -0.0363922 	0.145945 	0 -0.0378487 	0.142267 	0 -0.0393631 	0.138657 	0 -0.0409085 	0.134959 	0 -0.0425514 	0.131012 	0 -0.0432857 	0.129135 	0 -0.0440373 	0.12734 	0 -0.0447994 	0.125554 	0 -0.0455693 	0.123747 	0 -0.0461432 	0.122397 	0 -0.0471311 	0.119962 	0 -0.0481313 	0.117488 	0 -0.0491442 	0.114974 	0 -0.0501667 	0.112502 	0 -0.0512577 	0.109975 	0 -0.0531373 	0.105408 	0 -0.0550602 	0.100708 	0 -0.0570128 	0.0960489 	0 -0.0589901 	0.0914938 	0 -0.0613839 	0.0859361 	0 -0.062067 	0.0842777 	0 -0.062755 	0.0826042 	0 -0.063431 	0.0810577 	0 -0.0641101 	0.0795096 	0 -0.0646662 	0.0782387 	0 -0.0663187 	0.0742702 	0 -0.067992 	0.0702195 	0 -0.0696648 	0.06619 	0 -0.0713006 	0.062361 	0 -0.0736315 	0.0568545 	0 -0.0742834 	0.055262 	0 -0.0749364 	0.0536617 	0 -0.0755844 	0.05208 	0 -0.0762046 	0.0506168 	0 -0.0767467 	0.0493337 	0 -0.0785794 	0.0447541 	0 -0.0804062 	0.0401286 	0 -0.08215 	0.0357011 	0 -0.0838235 	0.0314295 	0 -0.0850328 	0.028299 	0 -0.0861504 	0.0252071 	0 -0.0871795 	0.0223065 	0 -0.0881703 	0.0194721 	0 -0.089147 	0.0166433 	0 -0.0907886 	0.0118292 	0 -0.0910403 	0.0110005 	0 -0.0912734 	0.0102097 	0 -0.0915051 	0.00941985 	0 -0.0917354 	0.00863109 	0 -0.0921834 	0.00709002 	0 -0.0927049 	0.00527761 	0 -0.0932188 	0.00347351 	0 -0.0937249 	0.00167831 	0 -0.0942232 	-0.00010744 	0 -0.0946953 	-0.00184146 	0 -0.0952395 	-0.00428684 	0 -0.0957698 	-0.00671465 	0 -0.0962102 	-0.00876854 	0 -0.0964281 	-0.00980455 	0 -0.0966435 	-0.0108371 	0 -0.0968564 	-0.0118662 	0 -0.0970666 	-0.0128917 	0 -0.0972766 	-0.0139248 	0 -0.097618 	-0.0162119 	0 -0.0979243 	-0.0184407 	0 -0.0982202 	-0.0206532 	0 -0.0985058 	-0.0228489 	0 -0.0987918 	-0.0251112 	0 -0.0989918 	-0.0273646 	0 -0.0991515 	-0.0295473 	0 -0.0992577 	-0.0316369 	0 -0.099357 	-0.0337108 	0 -0.0994547 	-0.0358875 	0 -0.0994706 	-0.0380458 	0 -0.0994797 	-0.0401851 	0 -0.099482 	-0.0423051 	0 -0.0994779 	-0.0444056 	0 -0.0994325 	-0.0465838 	0 -0.0994121 	-0.0468598 	0 -0.0993917 	-0.0471354 	0 -0.0993711 	-0.0474108 	0 -0.0993506 	-0.0476858 	0 -0.099331 	-0.0479471 	0 -0.0991757 	-0.0497967 	0 -0.0990174 	-0.0516338 	0 -0.0988562 	-0.0534582 	0 -0.0986923 	-0.0552698 	0 -0.0985123 	-0.0572122 	0 -0.0982282 	-0.0592447 	0 -0.0979416 	-0.0612595 	0 -0.0976528 	-0.0632564 	0 -0.0973618 	-0.0652353 	0 -0.0971416 	-0.0667093 	0 -0.097098 	-0.066984 	0 -0.0970544 	-0.0672583 	0 -0.0970108 	-0.0675324 	0 -0.0969671 	-0.0678061 	0 -0.0969228 	-0.0680835 	0 -0.0964434 	-0.0703247 	0 -0.0959491 	-0.072512 	0 -0.0954442 	-0.0746555 	0 -0.0949408 	-0.0767828 	0 -0.094373 	-0.079171 	0 -0.0942462 	-0.0795817 	0 -0.0941195 	-0.0799917 	0 -0.093993 	-0.0804011 	0 -0.0938667 	-0.0808098 	0 -0.0937452 	-0.0812026 	0 -0.0931737 	-0.0830777 	0 -0.0926047 	-0.0849411 	0 -0.0920383 	-0.0867928 	0 -0.0914746 	-0.0886326 	0 -0.0908399 	-0.0907006 	0 -0.0906142 	-0.0912752 	0 -0.090389 	-0.0918486 	0 -0.0901643 	-0.0924207 	0 -0.08994 	-0.0929916 	0 -0.0897259 	-0.0935369 	0 -0.0890391 	-0.095382 	0 -0.088357 	-0.0972167 	0 -0.0876795 	-0.0990408 	0 -0.0870067 	-0.100854 	0 -0.0862384 	-0.102927 	0 -0.0860748 	-0.103274 	0 -0.0859115 	-0.10362 	0 -0.0857485 	-0.103965 	0 -0.0855858 	-0.10431 	0 -0.0854269 	-0.104648 	0 -0.0845043 	-0.106789 	0 -0.0835915 	-0.10892 	0 -0.0826884 	-0.111038 	0 -0.0817776 	-0.113096 	0 -0.0809681 	-0.114885 	0 -0.0808639 	-0.11514 	0 -0.0807598 	-0.115395 	0 -0.0806558 	-0.11565 	0 -0.0805519 	-0.115905 	0 -0.0804456 	-0.116165 	0 -0.0796044 	-0.117796 	0 -0.07877 	-0.119418 	0 -0.0779426 	-0.121031 	0 -0.077122 	-0.122634 	0 -0.076368 	-0.124111 	0 -0.0757782 	-0.125434 	0 -0.0751924 	-0.126752 	0 -0.0746107 	-0.128065 	0 -0.0740332 	-0.129373 	0 -0.07338 	-0.130857 	0 -0.0731155 	-0.131328 	0 -0.0728517 	-0.131799 	0 -0.0725888 	-0.132269 	0 -0.0723267 	-0.132738 	0 -0.0720698 	-0.1332 	0 -0.0712171 	-0.134997 	0 -0.0703588 	-0.136748 	0 -0.0694693 	-0.138388 	0 -0.0685879 	-0.140018 	0 -0.0677605 	-0.141553 	0 -0.0672199 	-0.142746 	0 -0.0666829 	-0.143934 	0 -0.0661495 	-0.145119 	0 -0.0656196 	-0.1463 	0 -0.0650203 	-0.147641 	0 -0.0647702 	-0.148076 	0 -0.0645209 	-0.14851 	0 -0.0642724 	-0.148945 	0 -0.0640246 	-0.149379 	0 -0.0637803 	-0.149808 	0 -0.0630145 	-0.151441 	0 -0.0621917 	-0.152913 	0 -0.0613667 	-0.154355 	0 -0.0605489 	-0.155792 	0 -0.0597646 	-0.157175 	0 -0.0590361 	-0.158761 	0 -0.0583144 	-0.16034 	0 -0.0575994 	-0.161915 	0 -0.0568909 	-0.163484 	0 -0.0561395 	-0.164848 	0 -0.0559319 	-0.165291 	0 -0.0557247 	-0.165733 	0 -0.0555179 	-0.166174 	0 -0.0553116 	-0.166615 	0 -0.0550938 	-0.16708 	0 -0.0545592 	-0.167954 	0 -0.0540276 	-0.168827 	0 -0.053499 	-0.169698 	0 -0.0529733 	-0.170568 	0 -0.052458 	-0.171425 	0 -0.0517986 	-0.172832 	0 -0.0511058 	-0.174149 	0 -0.0503551 	-0.175322 	0 -0.0496092 	-0.17649 	0 -0.0488805 	-0.177633 	0 -0.0482307 	-0.178965 	0 -0.0475854 	-0.180292 	0 -0.0469446 	-0.181616 	0 -0.0462556 	-0.182821 	0 -0.0455198 	-0.183873 	0 -0.0449484 	-0.184957 	0 -0.0443797 	-0.186036 	0 -0.0438134 	-0.187111 	0 -0.0432498 	-0.188182 	0 -0.0425858 	-0.189444 	0 -0.0425264 	-0.189528 	0 -0.042467 	-0.189613 	0 -0.0424077 	-0.189697 	0 -0.0423483 	-0.189782 	0 -0.0422891 	-0.189866 	0 -0.0416025 	-0.190778 	0 -0.0409037 	-0.191655 	0 -0.040208 	-0.19253 	0 -0.0395155 	-0.193402 	0 -0.0388327 	-0.194264 	0 -0.0382504 	-0.195312 	0 -0.0375997 	-0.196207 	0 -0.0368917 	-0.196974 	0 -0.0361861 	-0.197736 	0 -0.0354882 	-0.198489 	0 -0.0348979 	-0.199425 	0 -0.0343098 	-0.200359 	0 -0.0336652 	-0.201167 	0 -0.0329429 	-0.201805 	0 -0.0322268 	-0.202435 	0 -0.0316242 	-0.203243 	0 -0.0310231 	-0.204046 	0 -0.0304234 	-0.204845 	0 -0.029757 	-0.205501 	0 -0.029021 	-0.205995 	0 -0.0284031 	-0.20666 	0 -0.0277861 	-0.207319 	0 -0.02717 	-0.207973 	0 -0.0265547 	-0.208622 	0 -0.0258449 	-0.209065 	0 -0.0252385 	-0.209551 	0 -0.0246323 	-0.210032 	0 -0.0240264 	-0.210507 	0 -0.0234208 	-0.210977 	0 -0.0226741 	-0.211546 	0 -0.0226678 	-0.211549 	0 -0.0226616 	-0.211553 	0 -0.0226553 	-0.211556 	0 -0.022649 	-0.211559 	0 -0.0226428 	-0.211562 	0 -0.0219763 	-0.211746 	0 -0.0213103 	-0.211928 	0 -0.0206446 	-0.212106 	0 -0.0199793 	-0.212283 	0 -0.0193165 	-0.212455 	0 -0.0187129 	-0.212667 	0 -0.018024 	-0.212703 	0 -0.0173349 	-0.212736 	0 -0.0166457 	-0.212764 	0 -0.0159583 	-0.212789 	0 -0.0154074 	-0.212982 	0 -0.0147006 	-0.212865 	0 -0.0139932 	-0.212742 	0 -0.0132851 	-0.212614 	0 -0.0125778 	-0.212482 	0 -0.0120073 	-0.212506 	0 -0.0113342 	-0.212331 	0 -0.0106062 	-0.212046 	0 -0.00987698 	-0.211756 	0 -0.00914777 	-0.21146 	0 -0.00855309 	-0.211304 	0 -0.00789555 	-0.21103 	0 -0.00714392 	-0.210578 	0 -0.00639051 	-0.21012 	0 -0.00563622 	-0.209654 	0 -0.00501257 	-0.209309 	0 -0.00435128 	-0.208894 	0 -0.0035719 	-0.208271 	0 -0.00279011 	-0.207639 	0 -0.00200646 	-0.206998 	0 -0.0013482 	-0.206454 	0 -0.000663189 	-0.205862 	0 0.000149255 	-0.205062 	0 0.000964816 	-0.204251 	0 0.0017834 	-0.203429 	0 0.00248296 	-0.202677 	0 0.00321244 	-0.201877 	0 0.00406495 	-0.200893 	0 0.00492143 	-0.199898 	0 0.0057824 	-0.198889 	0 0.00653153 	-0.19792 	0 0.00732771 	-0.196885 	0 0.00822956 	-0.195711 	0 0.00913643 	-0.194524 	0 0.0100498 	-0.193319 	0 0.0108589 	-0.19212 	0 0.0117466 	-0.190833 	0 0.0127094 	-0.18946 	0 0.0136786 	-0.188071 	0 0.0146572 	-0.18666 	0 0.015539 	-0.185217 	0 0.0165464 	-0.18367 	0 0.0175845 	-0.182086 	0 0.0186307 	-0.180482 	0 0.0196906 	-0.178849 	0 0.0206999 	-0.177129 	0 0.0218207 	-0.175343 	0 0.0229515 	-0.173534 	0 0.0240928 	-0.171701 	0 0.0252547 	-0.169827 	0 0.0255232 	-0.169353 	0 0.0258145 	-0.168875 	0 0.0261065 	-0.168396 	0 0.0263992 	-0.167915 	0 0.0266543 	-0.167496 	0 0.0275864 	-0.165849 	0 0.0285254 	-0.164181 	0 0.0294714 	-0.162492 	0 0.0304247 	-0.160783 	0 0.0314523 	-0.159085 	0 0.0327697 	-0.156701 	0 0.0341017 	-0.154276 	0 0.0354486 	-0.15181 	0 0.0368516 	-0.149365 	0 0.0383649 	-0.146902 	0 0.0398281 	-0.144199 	0 0.0413099 	-0.141448 	0 0.0428572 	-0.138742 	0 0.0444795 	-0.136096 	0 0.046193 	-0.133285 	0 0.0478399 	-0.130211 	0 0.0495852 	-0.127266 	0 0.0513885 	-0.124345 	0 0.053218 	-0.121368 	0 0.054343 	-0.119528 	0 0.0545085 	-0.119233 	0 0.0546742 	-0.118937 	0 0.0548401 	-0.11864 	0 0.0550097 	-0.118359 	0 0.055184 	-0.118088 	0 0.0570493 	-0.114832 	0 0.0589383 	-0.111514 	0 0.0608508 	-0.108134 	0 0.0628447 	-0.104966 	0 0.0651515 	-0.101402 	0 0.0665782 	-0.0989051 	0 0.0680198 	-0.0963933 	0 0.0695301 	-0.0941295 	0 0.0710515 	-0.0918404 	0 0.0721357 	-0.0902027 	0 0.0730213 	-0.0887221 	0 0.0739091 	-0.0872324 	0 0.0748043 	-0.0857716 	0 0.07572 	-0.0844333 	0 0.0767491 	-0.0829228 	0 0.0784872 	-0.0800651 	0 0.0802315 	-0.077183 	0 0.0820145 	-0.0744922 	0 0.0838235 	-0.0719255 	0 0.0851503 	-0.0700319 	0 0.0860586 	-0.0685686 	0 0.0869653 	-0.0671009 	0 0.0878843 	-0.0657571 	0 0.0888062 	-0.0644542 	0 0.0899144 	-0.0628802 	0 0.0909589 	-0.0612269 	0 0.0920007 	-0.0595718 	0 0.0930411 	-0.057926 	0 0.0941069 	-0.0564852 	0 0.0950488 	-0.0552071 	0 0.0966572 	-0.0526447 	0 0.0982499 	-0.0500814 	0 0.0998526 	-0.0478171 	0 0.10144 	-0.0455716 	0 0.102797 	-0.0436333 	0 0.103198 	-0.0429442 	0 0.103597 	-0.0422963 	0 0.103996 	-0.0416879 	0 0.104393 	-0.0410796 	0 0.104856 	-0.0403676 	0 0.105635 	-0.0390557 	0 0.106408 	-0.0377461 	0 0.107174 	-0.036439 	0 0.107939 	-0.035198 	0 0.10867 	-0.0341246 	0 0.109593 	-0.0323552 	0 0.110501 	-0.0305894 	0 0.111396 	-0.0288442 	0 0.112278 	-0.0273118 	0 0.113105 	-0.0258548 	0 0.113779 	-0.0242084 	0 0.114439 	-0.0225684 	0 0.115071 	-0.0211288 	0 0.11569 	-0.0196902 	0 0.11628 	-0.0182954 	0 0.116721 	-0.0167003 	0 0.117128 	-0.0152509 	0 0.117516 	-0.0138461 	0 0.117894 	-0.0124414 	0 0.118253 	-0.011062 	0 0.118456 	-0.00951959 	0 0.118621 	-0.00810638 	0 0.118775 	-0.00669193 	0 0.118918 	-0.00527644 	0 0.119049 	-0.00387328 	0 0.119008 	-0.0023433 	0 0.118939 	-0.000886692 	0 0.118859 	0.000572296 	0 0.118769 	0.00203345 	0 0.118667 	0.00349401 	0 0.118388 	0.00509113 	0 0.118082 	0.00661911 	0 0.117764 	0.0081508 	0 0.117435 	0.00968596 	0 0.117093 	0.0112344 	0 0.116583 	0.012986 	0 0.116031 	0.0146109 	0 0.115468 	0.0162412 	0 0.114895 	0.0178765 	0 0.1143 	0.0195453 	0 0.113539 	0.0214585 	0 0.112752 	0.0233066 	0 0.111934 	0.0250638 	0 0.111106 	0.0268277 	0 0.110239 	0.0286582 	0 0.109201 	0.0307159 	0 0.108153 	0.0327788 	0 0.107094 	0.0348461 	0 0.106007 	0.0368152 	0 0.10484 	0.0388656 	0 0.104016 	0.0402497 	0 0.103189 	0.0416362 	0 0.10236 	0.0430248 	0 0.101529 	0.0444151 	0 0.100971 	0.0453453 	0 0.100365 	0.0463773 	0 0.0997572 	0.0474107 	0 0.0991482 	0.0484454 	0 0.098538 	0.0494814 	0 0.0978954 	0.0505717 	0 0.0962228 	0.0532776 	0 0.0945476 	0.0559849 	0 0.0928642 	0.0586214 	0 0.0911797 	0.0612421 	0 0.0892083 	0.0643195 	0 0.0886338 	0.0651757 	0 0.0880602 	0.0660316 	0 0.0874876 	0.0668873 	0 0.086916 	0.0677426 	0 0.0864152 	0.068493 	0 0.0848398 	0.0709352 	0 0.0832724 	0.0733766 	0 0.0817141 	0.0758157 	0 0.0801657 	0.0782508 	0 0.0782657 	0.081253 	0 0.0773857 	0.0825707 	0 0.0765106 	0.0838853 	0 0.0756402 	0.0851967 	0 0.0747749 	0.0865045 	0 0.0740191 	0.0876502 	0 0.0721413 	0.0906213 	0 0.0702879 	0.093577 	0 0.0684595 	0.0965154 	0 0.0666569 	0.0994348 	0 0.0641721 	0.10349 	0 0.0639789 	0.103789 	0 0.063786 	0.104088 	0 0.0635935 	0.104387 	0 0.0634013 	0.104686 	0 0.0632125 	0.104979 	0 0.0611083 	0.108383 	0 0.0590449 	0.111683 	0 0.0570225 	0.114942 	0 0.0550404 	0.118161 	0 0.0533783 	0.120881 	0 0.051695 	0.123832 	0 0.0500417 	0.126754 	0 0.0484177 	0.129646 	0 0.0468222 	0.132508 	0 0.0448127 	0.136118 	0 0.0447279 	0.136276 	0 0.0446431 	0.136435 	0 0.0445585 	0.136593 	0 0.0444739 	0.136751 	0 0.0443871 	0.136913 	0 0.0428353 	0.139656 	0 0.0413119 	0.14237 	0 0.0398157 	0.145056 	0 0.0383461 	0.147715 	0 0.0369672 	0.150228 	0 0.0355514 	0.153106 	0 0.0341563 	0.155927 	0 0.0327642 	0.15859 	0 0.0313955 	0.161226 	0 0.0300872 	0.16376 	0 0.0288723 	0.166475 	0 0.0276773 	0.169165 	0 0.026501 	0.171831 	0 0.0253004 	0.174301 	0 0.0241364 	0.176707 	0 0.0231097 	0.179259 	0 0.022098 	0.181791 	0 0.0211007 	0.184303 	0 0.0201031 	0.186753 	0 0.019081 	0.189022 	0 0.0182328 	0.19141 	0 0.0173956 	0.19378 	0 0.0165691 	0.196135 	0 0.0157529 	0.198473 	0 0.0148939 	0.200653 	0 0.0142146 	0.202871 	0 0.0135431 	0.205075 	0 0.0128793 	0.207266 	0 0.0122228 	0.209445 	0 0.0115413 	0.211542 	0 0.0110195 	0.213584 	0 0.0105029 	0.215616 	0 0.00999148 	0.217638 	0 0.00948511 	0.21965 	0 0.00897554 	0.221636 	0 0.00884589 	0.222272 	0 0.00871664 	0.222908 	0 0.00858779 	0.223543 	0 0.00845934 	0.224177 	0 0.00830778 	0.224926 	0 0.00806692 	0.226101 	0 0.00782742 	0.227273 	0 0.00758928 	0.228442 	0 0.00735247 	0.22961 	0 0.00711707 	0.230774 	0 0.00688291 	0.232436 	0 0.00663192 	0.23408 	0 0.0063829 	0.23572 	0 0.00613579 	0.237356 	0 0.00589065 	0.238988 	0 0.00578988 	0.240476 	0 0.00564393 	0.241933 	0 0.005499 	0.243387 	0 0.00535506 	0.244839 	0 0.00521212 	0.246288 	0 0.00522034 	0.247594 	0 0.00515788 	0.248859 	0 0.00509585 	0.250122 	0 0.00503422 	0.251384 	0 0.004973 	0.252645 	0 0.0050655 	0.253765 	0 0.00506427 	0.254834 	0 0.00506313 	0.255903 	0 0.00506208 	0.256972 	0 0.00506111 	0.25804 	0 0.00521402 	0.258975 	0 0.00525204 	0.259848 	0 0.00529 	0.260722 	0 0.0053279 	0.261596 	0 0.00536574 	0.26247 	0 0.00555724 	0.263222 	0 0.00561398 	0.263901 	0 0.00567062 	0.26458 	0 0.00572717 	0.265259 	0 0.00578364 	0.26594 	0 0.00599486 	0.266516 	0 0.0060521 	0.267002 	0 0.00610928 	0.267488 	0 0.00616639 	0.267976 	0 0.00622344 	0.268464 	0 0.00643889 	0.268872 	0 0.0064811 	0.269168 	0 0.00652329 	0.269465 	0 0.00656545 	0.269763 	0 0.0066076 	0.270061 	0 0.00680805 	0.270305 	0 0.0068289 	0.270419 	0 0.00684302 	0.270529 	0 0.00685714 	0.27064 	0 0.00687126 	0.27075 	0 0.00702897 	0.27082 	0 0.00703412 	0.27077 	0 0.0070089 	0.270694 	0 0.00698367 	0.270619 	0 0.00695842 	0.270543 	0 0.00706376 	0.27044 	0 0.00704316 	0.270228 	0 0.00696882 	0.269968 	0 0.00689439 	0.269708 	0 0.00681985 	0.269446 	0 0.00686479 	0.26917 	0 0.00680933 	0.2688 	0 0.0066777 	0.268356 	0 0.00654582 	0.267911 	0 0.00641368 	0.267463 	0 0.0063918 	0.267013 	0 0.00629324 	0.266485 	0 0.00609791 	0.265858 	0 0.00590208 	0.265229 	0 0.00570574 	0.264595 	0 0.00561208 	0.263966 	0 0.0054627 	0.263278 	0 0.00519883 	0.262467 	0 0.0049341 	0.261652 	0 0.00466851 	0.260832 	0 0.00449926 	0.26002 	0 0.00429145 	0.259164 	0 0.00395541 	0.258168 	0 0.00361803 	0.257165 	0 0.00327931 	0.256156 	0 0.00303145 	0.255154 	0 0.00275733 	0.25412 	0 0.00234638 	0.252937 	0 0.00193346 	0.251744 	0 0.00151859 	0.250544 	0 0.00118941 	0.249344 	0 0.00084041 	0.248119 	0 0.000352175 	0.246744 	0 -0.000138822 	0.245359 	0 -0.000632598 	0.243963 	0 -0.00104596 	0.242556 	0 -0.00147949 	0.241124 	0 -0.0020477 	0.239553 	0 -0.00261964 	0.237969 	0 -0.00319547 	0.236371 	0 -0.00369656 	0.234748 	0 -0.00422563 	0.23309 	0 -0.00487731 	0.231317 	0 -0.00553396 	0.229527 	0 -0.006196 	0.227719 	0 -0.00678962 	0.225865 	0 -0.00742697 	0.223966 	0 -0.00816714 	0.221981 	0 -0.00891385 	0.219974 	0 -0.00966804 	0.217944 	0 -0.0103611 	0.215842 	0 -0.0111218 	0.213689 	0 -0.0119579 	0.211477 	0 -0.0128024 	0.20924 	0 -0.0136576 	0.206971 	0 -0.01446 	0.204601 	0 -0.0153619 	0.202183 	0 -0.0163043 	0.199727 	0 -0.017258 	0.197239 	0 -0.018227 	0.194708 	0 -0.0191673 	0.192045 	0 -0.0202173 	0.189359 	0 -0.0212815 	0.186633 	0 -0.0223606 	0.183867 	0 -0.0234628 	0.181039 	0 -0.0241756 	0.179136