# vtk DataFile Version 2.0
track0
ASCII
DATASET POLYDATA
POINTS 20002 float
1.11022e-18 0.5 1.11022e-18
0.391304 0.5 1.11022e-18
0.391043 0.499532 1.11022e-18
0.390785 0.499063 1.11022e-18
0.390529 0.498592 1.11022e-18
0.390275 0.498121 1.11022e-18
0.39 0.497603 1.11022e-18
0.389202 0.496083 1.11022e-18
0.388428 0.494549 1.11022e-18
0.387678 0.493005 1.11022e-18
0.386951 0.491449 1.11022e-18
0.3863 0.49 1.11022e-18
0.385432 0.488 1.11022e-18
0.384601 0.485985 1.11022e-18
0.383804 0.483955 1.11022e-18
0.383042 0.481913 1.11022e-18
0.382362 0.48 1.11022e-18
0.381889 0.478609 1.11022e-18
0.381431 0.477213 1.11022e-18
0.380987 0.475813 1.11022e-18
0.380557 0.474408 1.11022e-18
0.38 0.472527 1.11022e-18
0.379857 0.472022 1.11022e-18
0.379716 0.471516 1.11022e-18
0.379576 0.47101 1.11022e-18
0.379438 0.470503 1.11022e-18
0.379303 0.47 1.11022e-18
0.378772 0.468 1.11022e-18
0.378266 0.465994 1.11022e-18
0.377784 0.463981 1.11022e-18
0.377325 0.461963 1.11022e-18
0.376902 0.46 1.11022e-18
0.376492 0.458 1.11022e-18
0.376103 0.455996 1.11022e-18
0.375735 0.453988 1.11022e-18
0.375386 0.451976 1.11022e-18
0.375062 0.45 1.11022e-18
0.374753 0.448 1.11022e-18
0.374461 0.445997 1.11022e-18
0.374187 0.443992 1.11022e-18
0.373929 0.441985 1.11022e-18
0.37369 0.44 1.11022e-18
0.373465 0.438 1.11022e-18
0.373255 0.435998 1.11022e-18
0.373061 0.433995 1.11022e-18
0.37288 0.431991 1.11022e-18
0.372714 0.43 1.11022e-18
0.372561 0.428 1.11022e-18
0.372422 0.425999 1.11022e-18
0.372295 0.423997 1.11022e-18
0.37218 0.421995 1.11022e-18
0.372078 0.42 1.11022e-18
0.371988 0.418 1.11022e-18
0.371908 0.416 1.11022e-18
0.37184 0.413999 1.11022e-18
0.371783 0.411997 1.11022e-18
0.371737 0.41 1.11022e-18
0.3717 0.408 1.11022e-18
0.371673 0.406 1.11022e-18
0.371657 0.404 1.11022e-18
0.371649 0.401999 1.11022e-18
0.371651 0.4 1.11022e-18
0.371662 0.398 1.11022e-18
0.371682 0.396 1.11022e-18
0.37171 0.394 1.11022e-18
0.371746 0.392001 1.11022e-18
0.37179 0.39 1.11022e-18
0.371843 0.388 1.11022e-18
0.371902 0.386 1.11022e-18
0.371969 0.384001 1.11022e-18
0.372044 0.382001 1.11022e-18
0.372125 0.38 1.11022e-18
0.372214 0.378 1.11022e-18
0.372308 0.376 1.11022e-18
0.37241 0.374001 1.11022e-18
0.372517 0.372002 1.11022e-18
0.372631 0.37 1.11022e-18
0.37275 0.368 1.11022e-18
0.372875 0.366 1.11022e-18
0.373006 0.364001 1.11022e-18
0.373141 0.362002 1.11022e-18
0.373282 0.36 1.11022e-18
0.373429 0.358 1.11022e-18
0.373579 0.356 1.11022e-18
0.373734 0.354001 1.11022e-18
0.373894 0.352002 1.11022e-18
0.374058 0.35 1.11022e-18
0.374226 0.348 1.11022e-18
0.374398 0.346 1.11022e-18
0.374574 0.344001 1.11022e-18
0.374753 0.342002 1.11022e-18
0.374936 0.34 1.11022e-18
0.375122 0.338 1.11022e-18
0.375311 0.336 1.11022e-18
0.375503 0.334001 1.11022e-18
0.375697 0.332001 1.11022e-18
0.375894 0.33 1.11022e-18
0.376094 0.328 1.11022e-18
0.376296 0.326 1.11022e-18
0.3765 0.324 1.11022e-18
0.376705 0.322001 1.11022e-18
0.376913 0.32 1.11022e-18
0.377123 0.318 1.11022e-18
0.377333 0.316 1.11022e-18
0.377545 0.314 1.11022e-18
0.377757 0.312001 1.11022e-18
0.377972 0.31 1.11022e-18
0.378187 0.308 1.11022e-18
0.378402 0.306 1.11022e-18
0.378618 0.304 1.11022e-18
0.378835 0.302 1.11022e-18
0.379052 0.3 1.11022e-18
0.379241 0.298256 1.11022e-18
0.37943 0.296511 1.11022e-18
0.379619 0.294767 1.11022e-18
0.379808 0.293022 1.11022e-18
0.38 0.291248 1.11022e-18
0.380027 0.290999 1.11022e-18
0.380054 0.290749 1.11022e-18
0.380081 0.290499 1.11022e-18
0.380108 0.29025 1.11022e-18
0.380135 0.29 1.11022e-18
0.380351 0.288 1.11022e-18
0.380566 0.286 1.11022e-18
0.380781 0.284 1.11022e-18
0.380994 0.281999 1.11022e-18
0.381207 0.28 1.11022e-18
0.381419 0.278 1.11022e-18
0.38163 0.276 1.11022e-18
0.38184 0.274 1.11022e-18
0.382047 0.271999 1.11022e-18
0.382254 0.27 1.11022e-18
0.38246 0.268 1.11022e-18
0.382664 0.266 1.11022e-18
0.382866 0.263999 1.11022e-18
0.383065 0.261999 1.11022e-18
0.383264 0.26 1.11022e-18
0.383461 0.258 1.11022e-18
0.383656 0.256 1.11022e-18
0.383849 0.253999 1.11022e-18
0.384039 0.251998 1.11022e-18
0.384228 0.25 1.11022e-18
0.384416 0.248 1.11022e-18
0.384601 0.246 1.11022e-18
0.384783 0.243999 1.11022e-18
0.384963 0.241998 1.11022e-18
0.385141 0.24 1.11022e-18
0.385319 0.238 1.11022e-18
0.385494 0.236 1.11022e-18
0.385665 0.233999 1.11022e-18
0.385835 0.231999 1.11022e-18
0.386004 0.23 1.11022e-18
0.386172 0.228 1.11022e-18
0.386337 0.226 1.11022e-18
0.386499 0.223999 1.11022e-18
0.386661 0.221999 1.11022e-18
0.386821 0.22 1.11022e-18
0.386981 0.218 1.11022e-18
0.387138 0.216 1.11022e-18
0.387293 0.213999 1.11022e-18
0.387448 0.211999 1.11022e-18
0.387602 0.21 1.11022e-18
0.387756 0.208 1.11022e-18
0.387908 0.206 1.11022e-18
0.38806 0.204 1.11022e-18
0.388212 0.202 1.11022e-18
0.388365 0.2 1.11022e-18
0.388518 0.198 1.11022e-18
0.38867 0.196 1.11022e-18
0.388824 0.194 1.11022e-18
0.388979 0.192 1.11022e-18
0.389135 0.19 1.11022e-18
0.389293 0.188 1.11022e-18
0.389453 0.186 1.11022e-18
0.389615 0.184001 1.11022e-18
0.389781 0.182001 1.11022e-18
0.38995 0.18 1.11022e-18
0.38996 0.179883 1.11022e-18
0.38997 0.179766 1.11022e-18
0.38998 0.17965 1.11022e-18
0.38999 0.179533 1.11022e-18
0.39 0.179418 1.11022e-18
0.390163 0.177534 1.11022e-18
0.39033 0.175651 1.11022e-18
0.390502 0.173768 1.11022e-18
0.390678 0.171886 1.11022e-18
0.390859 0.17 1.11022e-18
0.391058 0.168 1.11022e-18
0.391264 0.166001 1.11022e-18
0.391477 0.164002 1.11022e-18
0.391699 0.162005 1.11022e-18
0.39193 0.16 1.11022e-18
0.392172 0.158 1.11022e-18
0.392426 0.156001 1.11022e-18
0.392691 0.154004 1.11022e-18
0.39297 0.152009 1.11022e-18
0.393265 0.15 1.11022e-18
0.393575 0.148 1.11022e-18
0.393903 0.146003 1.11022e-18
0.39425 0.144009 1.11022e-18
0.394616 0.142018 1.11022e-18
0.395011 0.14 1.11022e-18
0.395428 0.138 1.11022e-18
0.395872 0.136006 1.11022e-18
0.396344 0.134018 1.11022e-18
0.396848 0.132038 1.11022e-18
0.397403 0.13 1.11022e-18
0.397923 0.128226 1.11022e-18
0.398475 0.126462 1.11022e-18
0.399061 0.124709 1.11022e-18
0.399685 0.122968 1.11022e-18
0.4 0.122148 1.11022e-18
0.400171 0.121718 1.11022e-18
0.400344 0.12129 1.11022e-18
0.400519 0.120862 1.11022e-18
0.400697 0.120436 1.11022e-18
0.400883 0.12 1.11022e-18
0.401748 0.118 1.11022e-18
0.402677 0.116029 1.11022e-18
0.403674 0.114091 1.11022e-18
0.404743 0.112192 1.11022e-18
0.40609 0.11 1.11022e-18
0.406872 0.108857 1.11022e-18
0.407688 0.107738 1.11022e-18
0.408538 0.106645 1.11022e-18
0.409421 0.105578 1.11022e-18
0.41 0.104922 1.11022e-18
0.410904 0.103937 1.11022e-18
0.411838 0.102982 1.11022e-18
0.412802 0.102056 1.11022e-18
0.413795 0.101162 1.11022e-18
0.415166 0.1 1.11022e-18
0.416132 0.0992483 1.11022e-18
0.417122 0.0985267 1.11022e-18
0.418134 0.0978365 1.11022e-18
0.419166 0.0971781 1.11022e-18
0.42 0.0966791 1.11022e-18
0.422 0.095542 1.11022e-18
0.424057 0.0945111 1.11022e-18
0.426165 0.0935903 1.11022e-18
0.428314 0.0927698 1.11022e-18
0.43 0.0922137 1.11022e-18
0.43152 0.091771 1.11022e-18
0.433053 0.0913746 1.11022e-18
0.434596 0.0910195 1.11022e-18
0.436147 0.0907051 1.11022e-18
0.44 0.0900283 1.11022e-18
0.440051 0.0900227 1.11022e-18
0.440102 0.090017 1.11022e-18
0.440154 0.0900115 1.11022e-18
0.440205 0.0900059 1.11022e-18
0.44026 0.09 1.11022e-18
0.442208 0.0897915 1.11022e-18
0.444161 0.0896359 1.11022e-18
0.446117 0.0895328 1.11022e-18
0.448076 0.089482 1.11022e-18
0.45 0.0894829 1.11022e-18
0.452 0.0895333 1.11022e-18
0.453998 0.0896303 1.11022e-18
0.455994 0.0897738 1.11022e-18
0.457985 0.0899634 1.11022e-18
0.458295 0.09 1.11022e-18
0.458636 0.0900416 1.11022e-18
0.458977 0.0900845 1.11022e-18
0.459317 0.0901288 1.11022e-18
0.459658 0.0901744 1.11022e-18
0.46 0.0902216 1.11022e-18
0.462 0.0905056 1.11022e-18
0.463993 0.0908323 1.11022e-18
0.46598 0.0912011 1.11022e-18
0.467957 0.0916118 1.11022e-18
0.47 0.092081 1.11022e-18
0.472 0.0925865 1.11022e-18
0.473989 0.0931349 1.11022e-18
0.475966 0.0937243 1.11022e-18
0.47793 0.0943538 1.11022e-18
0.48 0.0950636 1.11022e-18
0.482 0.0957977 1.11022e-18
0.483984 0.0965738 1.11022e-18
0.485952 0.0973912 1.11022e-18
0.487901 0.0982496 1.11022e-18
0.49 0.099226 1.11022e-18
0.490314 0.0993808 1.11022e-18
0.490628 0.0995366 1.11022e-18
0.490942 0.0996935 1.11022e-18
0.491254 0.0998514 1.11022e-18
0.491546 0.1 1.11022e-18
0.493237 0.100867 1.11022e-18
0.494912 0.101765 1.11022e-18
0.49657 0.102692 1.11022e-18
0.498211 0.10365 1.11022e-18
0.5 0.104736 1.11022e-18
0.501659 0.105789 1.11022e-18
0.503299 0.106872 1.11022e-18
0.504919 0.107984 1.11022e-18
0.506518 0.109125 1.11022e-18
0.507699 0.11 1.11022e-18
0.50816 0.11035 1.11022e-18
0.508618 0.110703 1.11022e-18
0.509074 0.111058 1.11022e-18
0.509529 0.111415 1.11022e-18
0.51 0.11179 1.11022e-18
0.512 0.113396 1.11022e-18
0.513963 0.115048 1.11022e-18
0.515889 0.116743 1.11022e-18
0.517777 0.118479 1.11022e-18
0.519361 0.12 1.11022e-18
0.519489 0.120127 1.11022e-18
0.519616 0.120255 1.11022e-18
0.519744 0.120382 1.11022e-18
0.519871 0.12051 1.11022e-18
0.52 0.12064 1.11022e-18
0.521852 0.122512 1.11022e-18
0.523663 0.124423 1.11022e-18
0.525434 0.126372 1.11022e-18
0.527165 0.128356 1.11022e-18
0.528541 0.13 1.11022e-18
0.528833 0.13036 1.11022e-18
0.529123 0.130721 1.11022e-18
0.529413 0.131084 1.11022e-18
0.529701 0.131447 1.11022e-18
0.53 0.131827 1.11022e-18
0.531278 0.133462 1.11022e-18
0.532531 0.135115 1.11022e-18
0.53376 0.136787 1.11022e-18
0.534965 0.138476 1.11022e-18
0.536019 0.14 1.11022e-18
0.536815 0.141182 1.11022e-18
0.5376 0.142371 1.11022e-18
0.538374 0.143568 1.11022e-18
0.539136 0.144772 1.11022e-18
0.54 0.146164 1.11022e-18
0.540465 0.146931 1.11022e-18
0.540926 0.147701 1.11022e-18
0.541383 0.148473 1.11022e-18
0.541836 0.149248 1.11022e-18
0.54227 0.15 1.11022e-18
0.543411 0.152 1.11022e-18
0.544525 0.154015 1.11022e-18
0.545612 0.156045 1.11022e-18
0.546673 0.158088 1.11022e-18
0.547635 0.16 1.11022e-18
0.548108 0.160967 1.11022e-18
0.548576 0.161936 1.11022e-18
0.549038 0.162908 1.11022e-18
0.549495 0.163883 1.11022e-18
0.55 0.164976 1.11022e-18
0.550457 0.165981 1.11022e-18
[...]
POINT_DATA 20002
 FIELD attributes 1
U 3 20002 float
-1.41439e-19 	-8.72164e-18 	0
0.0471762 	0.0846214 	0 0.0468772 	0.0850925 	0 0.0465791 	0.0855628 	0 0.0462821 	0.0860322 	0 0.045986 	0.0865008 	0 0.0456633 	0.0870122 	0 0.044673 	0.0885048 	0 0.0436946 	0.0899882 	0 0.0427278 	0.0914623 	0 0.0417727 	0.0929272 	0 0.0408999 	0.0942733 	0 0.0397062 	0.0962278 	0 0.0385311 	0.0981675 	0 0.0373742 	0.100092 	0 0.0362311 	0.101929 	0 0.035182 	0.103614 	0 0.0344242 	0.10491 	0 0.0336741 	0.106199 	0 0.0329315 	0.10748 	0 0.0321963 	0.108753 	0 0.0312242 	0.110444 	0 0.0309586 	0.110886 	0 0.030694 	0.111328 	0 0.0304305 	0.111769 	0 0.0301679 	0.112209 	0 0.0299087 	0.112644 	0 0.0288604 	0.11444 	0 0.0278282 	0.116181 	0 0.0268111 	0.117907 	0 0.0258085 	0.119619 	0 0.024849 	0.121268 	0 0.0238629 	0.123049 	0 0.0228905 	0.12481 	0 0.0219344 	0.126469 	0 0.0209909 	0.128114 	0 0.0200773 	0.129715 	0 0.0191411 	0.131441 	0 0.0182166 	0.133155 	0 0.0173041 	0.134845 	0 0.0164074 	0.136431 	0 0.0155321 	0.137985 	0 0.0146374 	0.139662 	0 0.0137529 	0.141326 	0 0.0128784 	0.142978 	0 0.012017 	0.144566 	0 0.0111749 	0.146074 	0 0.0103167 	0.147703 	0 0.00946756 	0.14932 	0 0.0086273 	0.150926 	0 0.00779644 	0.152509 	0 0.00698451 	0.153973 	0 0.00616079 	0.155557 	0 0.00534516 	0.157129 	0 0.00453739 	0.15869 	0 0.0037373 	0.16024 	0 0.00295363 	0.161674 	0 0.00216467 	0.163212 	0 0.00138288 	0.164739 	0 0.000608091 	0.166257 	0 -0.000159864 	0.167764 	0 -0.000914183 	0.169163 	0 -0.00166614 	0.170656 	0 -0.00241174 	0.172139 	0 -0.00315112 	0.173613 	0 -0.00388443 	0.175078 	0 -0.00460611 	0.176429 	0 -0.00531691 	0.177877 	0 -0.0060221 	0.179316 	0 -0.00672182 	0.180747 	0 -0.00741609 	0.182166 	0 -0.00810115 	0.183459 	0 -0.00876485 	0.184862 	0 -0.00942368 	0.186255 	0 -0.0100777 	0.187641 	0 -0.0107268 	0.18899 	0 -0.0113712 	0.19024 	0 -0.0119801 	0.191594 	0 -0.0125847 	0.19294 	0 -0.0131853 	0.194279 	0 -0.0137841 	0.195547 	0 -0.0143819 	0.196753 	0 -0.0149263 	0.198054 	0 -0.0154673 	0.199348 	0 -0.016005 	0.200636 	0 -0.01655 	0.201816 	0 -0.0170941 	0.202976 	0 -0.0175633 	0.204218 	0 -0.0180298 	0.205454 	0 -0.0184998 	0.206656 	0 -0.0189843 	0.207772 	0 -0.0194668 	0.208883 	0 -0.019849 	0.210057 	0 -0.0202294 	0.211228 	0 -0.0206336 	0.212324 	0 -0.0210476 	0.213384 	0 -0.02146 	0.214441 	0 -0.0217436 	0.215538 	0 -0.0220335 	0.216621 	0 -0.02237 	0.217621 	0 -0.022705 	0.218618 	0 -0.0230388 	0.219613 	0 -0.0232129 	0.220622 	0 -0.0234324 	0.221582 	0 -0.0236815 	0.222509 	0 -0.0239296 	0.223433 	0 -0.024177 	0.224356 	0 -0.0242411 	0.225257 	0 -0.0243966 	0.226099 	0 -0.0245518 	0.226941 	0 -0.0247066 	0.227782 	0 -0.0248611 	0.228621 	0 -0.0248571 	0.229288 	0 -0.024907 	0.229935 	0 -0.024957 	0.230582 	0 -0.0250071 	0.231229 	0 -0.0250581 	0.231888 	0 -0.025065 	0.231967 	0 -0.025072 	0.232046 	0 -0.0250789 	0.232125 	0 -0.0250859 	0.232203 	0 -0.0250996 	0.232273 	0 -0.0250515 	0.232774 	0 -0.0250039 	0.233276 	0 -0.0249567 	0.23378 	0 -0.0249099 	0.234287 	0 -0.0249375 	0.234719 	0 -0.0247899 	0.235074 	0 -0.0246429 	0.235432 	0 -0.0244966 	0.235794 	0 -0.0243546 	0.236157 	0 -0.0243713 	0.236402 	0 -0.024133 	0.236595 	0 -0.0238956 	0.236793 	0 -0.0236588 	0.236997 	0 -0.0235137 	0.237153 	0 -0.0234654 	0.237255 	0 -0.0231508 	0.237271 	0 -0.0228368 	0.237294 	0 -0.0225236 	0.237323 	0 -0.0224076 	0.23727 	0 -0.0223064 	0.237213 	0 -0.0219345 	0.237037 	0 -0.0215631 	0.236869 	0 -0.0212757 	0.236678 	0 -0.0211374 	0.236442 	0 -0.0209994 	0.236208 	0 -0.0205938 	0.235825 	0 -0.0201884 	0.235451 	0 -0.0199753 	0.235031 	0 -0.0198205 	0.234599 	0 -0.0196658 	0.23417 	0 -0.0192536 	0.233567 	0 -0.0188827 	0.232963 	0 -0.0187353 	0.232316 	0 -0.0185878 	0.231671 	0 -0.0184403 	0.231029 	0 -0.0180513 	0.230191 	0 -0.0178079 	0.229334 	0 -0.0176948 	0.228458 	0 -0.0175817 	0.227582 	0 -0.0174684 	0.226708 	0 -0.0171343 	0.22562 	0 -0.0170527 	0.224502 	0 -0.0170035 	0.223379 	0 -0.0169544 	0.222255 	0 -0.0169055 	0.221131 	0 -0.01673 	0.219767 	0 -0.0167757 	0.218383 	0 -0.0168222 	0.216995 	0 -0.0168695 	0.215604 	0 -0.0169176 	0.214208 	0 -0.0169728 	0.212554 	0 -0.0171475 	0.210889 	0 -0.0173242 	0.209216 	0 -0.017503 	0.207537 	0 -0.0176841 	0.205847 	0 -0.0176969 	0.205733 	0 -0.0177165 	0.205619 	0 -0.0177362 	0.205505 	0 -0.0177559 	0.20539 	0 -0.0177753 	0.205278 	0 -0.0180682 	0.203334 	0 -0.0183639 	0.201378 	0 -0.0186626 	0.199407 	0 -0.0189643 	0.197423 	0 -0.0193712 	0.195443 	0 -0.0198752 	0.193053 	0 -0.0203852 	0.190639 	0 -0.0209013 	0.188201 	0 -0.0214238 	0.185738 	0 -0.0221704 	0.183334 	0 -0.0229062 	0.180577 	0 -0.0236522 	0.177784 	0 -0.024409 	0.174955 	0 -0.0252753 	0.172161 	0 -0.0262982 	0.169403 	0 -0.027308 	0.166229 	0 -0.0283346 	0.163006 	0 -0.0294009 	0.159755 	0 -0.0306793 	0.156668 	0 -0.0320019 	0.153469 	0 -0.0333374 	0.149811 	0 -0.0346999 	0.146082 	0 -0.0362732 	0.142593 	0 -0.0378903 	0.139042 	0 -0.0395986 	0.135283 	0 -0.0411378 	0.131512 	0 -0.0428392 	0.128 	0 -0.0445968 	0.12446 	0 -0.0463929 	0.120838 	0 -0.0472661 	0.119074 	0 -0.0476891 	0.118091 	0 -0.048114 	0.117102 	0 -0.0485409 	0.116107 	0 -0.0489785 	0.115156 	0 -0.0494406 	0.114244 	0 -0.0516213 	0.109543 	0 -0.0538496 	0.104705 	0 -0.0561269 	0.0997232 	0 -0.0585047 	0.0951567 	0 -0.0613789 	0.0897105 	0 -0.0629763 	0.0863887 	0 -0.0645935 	0.0830119 	0 -0.0662438 	0.0800466 	0 -0.0679114 	0.077046 	0 -0.0689755 	0.0751202 	0 -0.07039 	0.0720536 	0 -0.0718098 	0.0689439 	0 -0.0732243 	0.0659685 	0 -0.074627 	0.0632243 	0 -0.0765146 	0.0594885 	0 -0.0778013 	0.0567309 	0 -0.0790863 	0.0539541 	0 -0.0803624 	0.0512354 	0 -0.0816068 	0.0488534 	0 -0.0825901 	0.0469536 	0 -0.0844912 	0.0423515 	0 -0.0863565 	0.0377163 	0 -0.0880974 	0.0336292 	0 -0.0897844 	0.0296219 	0 -0.0910536 	0.0265213 	0 -0.0919139 	0.0237682 	0 -0.09268 	0.021328 	0 -0.0934152 	0.0189317 	0 -0.0941302 	0.0165344 	0 -0.0958458 	0.0106128 	0 -0.0958591 	0.010541 	0 -0.095871 	0.0104735 	0 -0.0958829 	0.010406 	0 -0.0958947 	0.0103385 	0 -0.0959074 	0.0102665 	0 -0.0963535 	0.00767717 	0 -0.0967736 	0.00509475 	0 -0.0971676 	0.00252104 	0 -0.0975354 	-4.22028e-05 	0 -0.097845 	-0.00246506 	0 -0.0978917 	-0.0047564 	0 -0.0979168 	-0.00704147 	0 -0.0979207 	-0.00931908 	0 -0.0979033 	-0.011588 	0 -0.0978973 	-0.0119398 	0 -0.0978897 	-0.0123306 	0 -0.0978814 	-0.0127212 	0 -0.0978726 	-0.0131117 	0 -0.0978631 	-0.0135018 	0 -0.0978529 	-0.0138938 	0 -0.0975858 	-0.0159935 	0 -0.0972884 	-0.0180664 	0 -0.0969745 	-0.0201356 	0 -0.0966442 	-0.0222002 	0 -0.0962846 	-0.0243365 	0 -0.0958376 	-0.0264244 	0 -0.0953194 	-0.0284219 	0 -0.0947514 	-0.0303592 	0 -0.0941719 	-0.0322927 	0 -0.0935454 	-0.0343387 	0 -0.09287 	-0.036324 	0 -0.0921836 	-0.0383026 	0 -0.0914864 	-0.0402736 	0 -0.090779 	-0.0422361 	0 -0.0899475 	-0.0442881 	0 -0.0898107 	-0.0445918 	0 -0.0896738 	-0.0448954 	0 -0.0895367 	-0.0451988 	0 -0.0893995 	-0.045502 	0 -0.0892711 	-0.0457853 	0 -0.0885313 	-0.04745 	0 -0.0877881 	-0.0491107 	0 -0.0870417 	-0.050767 	0 -0.0862924 	-0.0524183 	0 -0.0854642 	-0.0542308 	0 -0.0846421 	-0.0558963 	0 -0.0838182 	-0.0575551 	0 -0.0829928 	-0.0592069 	0 -0.0821662 	-0.0608511 	0 -0.081547 	-0.0620751 	0 -0.0813072 	-0.0625657 	0 -0.0810673 	-0.0630557 	0 -0.0808275 	-0.0635449 	0 -0.0805876 	-0.0640335 	0 -0.0803379 	-0.0645411 	0 -0.0792069 	-0.0666306 	0 -0.0780775 	-0.0687066 	0 -0.0769502 	-0.0707683 	0 -0.0758255 	-0.0728149 	0 -0.0748657 	-0.0745528 	0 -0.0747889 	-0.0746995 	0 -0.074712 	-0.0748462 	0 -0.0746352 	-0.0749928 	0 -0.0745583 	-0.0751393 	0 -0.0744804 	-0.075288 	0 -0.0732824 	-0.0773112 	0 -0.072091 	-0.0793203 	0 -0.0709066 	-0.0813146 	0 -0.0697295 	-0.0832936 	0 -0.0687775 	-0.0848915 	0 -0.0685789 	-0.0852514 	0 -0.0683806 	-0.0856108 	0 -0.0681825 	-0.0859697 	0 -0.0679847 	-0.0863281 	0 -0.0677785 	-0.0867017 	0 -0.0668339 	-0.0881774 	0 -0.0658961 	-0.089646 	0 -0.064965 	-0.0911072 	0 -0.0640407 	-0.0925608 	0 -0.0632215 	-0.0938521 	0 -0.0626206 	-0.0949008 	0 -0.0620233 	-0.095946 	0 -0.0614294 	-0.0969877 	0 -0.0608391 	-0.098026 	0 -0.0601647 	-0.0992151 	0 -0.0597734 	-0.0997964 	0 -0.0593837 	-0.100377 	0 -0.0589955 	-0.100957 	0 -0.058609 	-0.101535 	0 -0.0582363 	-0.102095 	0 -0.0573033 	-0.103682 	0 -0.056381 	-0.105265 	0 -0.0554516 	-0.106801 	0 -0.0545099 	-0.108281 	0 -0.0536429 	-0.109648 	0 -0.0532401 	-0.110384 	0 -0.0528392 	-0.111118 	0 -0.0524403 	-0.111851 	0 -0.0520433 	-0.112581 	0 -0.0516014 	-0.113397 	0 -0.0511738 	-0.114046 	0 -0.0507484 	-0.114694 	0 -0.0503252 	-0.115342 	0 -0.0499043 	-0.115989 	0 -0.0494953 	-0.11662 	0 -0.0487416 	-0.117995 	0 -0.0479922 	-0.119357 	0 -0.0472064 	-0.120614 	0 -0.0464279 	-0.121867 	0 -0.0456862 	-0.123066 	0 -0.0450068 	-0.124392 	0 -0.0443342 	-0.125713 	0 -0.0436684 	-0.12703 	0 -0.0430092 	-0.128343 	0 -0.0423662 	-0.129592 	0 -0.0423242 	-0.129678 	0 -0.0422822 	-0.129764 	0 -0.0422403 	-0.12985 	0 -0.0421984 	-0.129936 	0 -0.0421558 	-0.130023 	0 -0.0415494 	-0.131016 	0 -0.0409481 	-0.132008 	0 -0.040352 	-0.132998 	0 -0.0397608 	-0.133988 	0 -0.0391862 	-0.134956 	0 -0.0386422 	-0.136104 	0 -0.0381035 	-0.137251 	0 -0.0375135 	-0.13827 	0 -0.0369266 	-0.139283 	0 -0.0363538 	-0.140277 	0 -0.0358559 	-0.141379 	0 -0.0353623 	-0.142479 	0 -0.0348729 	-0.143577 	0 -0.0343741 	-0.144642 	0 -0.0338382 	-0.145583 	0 -0.0334727 	-0.146417 	0 -0.0331093 	-0.147249 	0 -0.032748 	-0.14808 	0 -0.0323889 	-0.148909 	0 -0.0319732 	-0.149871 	0 -0.0318903 	-0.150022 	0 -0.0318076 	-0.150172 	0 -0.031725 	-0.150322 	0 -0.0316425 	-0.150473 	0 -0.0315602 	-0.150623 	0 -0.0311234 	-0.151459 	0 -0.0306754 	-0.152263 	0 -0.0302304 	-0.153067 	0 -0.0297884 	-0.153872 	0 -0.0293527 	-0.15467 	0 -0.0289903 	-0.15557 	0 -0.028598 	-0.156394 	0 -0.0281788 	-0.15715 	0 -0.0277621 	-0.157906 	0 -0.0273504 	-0.158656 	0 -0.027012 	-0.159512 	0 -0.0266757 	-0.160367 	0 -0.0263125 	-0.161153 	0 -0.0259168 	-0.161855 	0 -0.025525 	-0.162553 	0 -0.0252065 	-0.16336 	0 -0.0248898 	-0.164166 	0 -0.0245748 	-0.164972 	0 -0.0242271 	-0.165692 	0 -0.0238517 	-0.166333 	0 -0.0235495 	-0.167088 	0 -0.0232486 	-0.167841 	0 -0.0229492 	-0.168592 	0 -0.022651 	-0.169343 	0 -0.0223084 	-0.169973 	0 -0.0220403 	-0.170619 	0 -0.0217732 	-0.171264 	0 -0.021507 	-0.171907 	0 -0.0212418 	-0.172549 	0 -0.0209342 	-0.173294 	0 -0.0209214 	-0.173317 	0 -0.0209086 	-0.17334 	0 -0.0208957 	-0.173363 	0 -0.0208829 	-0.173385 	0 -0.0208701 	-0.173408 	0 -0.020577 	-0.173891 	0 -0.020283 	-0.174371 	0 -0.0199902 	-0.17485 	0 -0.0196985 	-0.175331 	0 -0.0194085 	-0.175811 	0 -0.0191654 	-0.176353 	0 -0.0188782 	-0.176779 	0 -0.0185919 	-0.177205 	0 -0.0183065 	-0.177631 	0 -0.0180225 	-0.178057 	0 -0.0178068 	-0.178605 	0 -0.0175417 	-0.179022 	0 -0.0172587 	-0.17939 	0 -0.0169764 	-0.179758 	0 -0.0166954 	-0.180125 	0 -0.0164831 	-0.180621 	0 -0.0162567 	-0.181078 	0 -0.0159736 	-0.181383 	0 -0.0156911 	-0.181688 	0 -0.0154095 	-0.181991 	0 -0.0151973 	-0.182429 	0 -0.0149856 	-0.182866 	0 -0.0147189 	-0.183156 	0 -0.0144323 	-0.183392 	0 -0.0141464 	-0.183627 	0 -0.0139306 	-0.184 	0 -0.0137151 	-0.184372 	0 -0.0134752 	-0.184679 	0 -0.0131803 	-0.184841 	0 -0.0128859 	-0.185001 	0 -0.012662 	-0.185302 	0 -0.0124384 	-0.185603 	0 -0.0122151 	-0.185902 	0 -0.0119128 	-0.185998 	0 -0.011605 	-0.186077 	0 -0.0113683 	-0.1863 	0 -0.0111317 	-0.186521 	0 -0.0108952 	-0.18674 	0 -0.0106046 	-0.186823 	0 -0.0102781 	-0.186814 	0 -0.0100228 	-0.186948 	0 -0.00976748 	-0.187081 	0 -0.00951215 	-0.187211 	0 -0.00922671 	-0.187268 	0 -0.00887504 	-0.187163 	0 -0.00859462 	-0.187198 	0 -0.00831402 	-0.187232 	0 -0.00803323 	-0.187263 	0 -0.00774513 	-0.187276 	0 -0.00736125 	-0.187066 	0 -0.00704815 	-0.186992 	0 -0.00673467 	-0.186915 	0 -0.00642081 	-0.186835 	0 -0.00610657 	-0.186752 	0 -0.00569632 	-0.186458 	0 -0.005342 	-0.186261 	0 -0.00498704 	-0.186061 	0 -0.00463144 	-0.185856 	0 -0.00427519 	-0.185648 	0 -0.00383367 	-0.185263 	0 -0.00342863 	-0.184929 	0 -0.00302261 	-0.18459 	0 -0.00261559 	-0.184246 	0 -0.00220758 	-0.183896 	0 -0.00172035 	-0.183395 	0 -0.0012544 	-0.182907 	0 -0.000786996 	-0.182412 	0 -0.000318119 	-0.181912 	0 0.000152236 	-0.181405 	0 0.00070239 	-0.180757 	0 0.00124007 	-0.180098 	0 0.00177986 	-0.179431 	0 0.00232176 	-0.178755 	0 0.00286581 	-0.178071 	0 0.00349944 	-0.177247 	0 0.00412061 	-0.176397 	0 0.00474476 	-0.175536 	0 0.00537192 	-0.174666 	0 0.00600213 	-0.173784 	0 0.00674379 	-0.172751 	0 0.00746144 	-0.171688 	0 0.00818326 	-0.170612 	0 0.00890932 	-0.169523 	0 0.00963966 	-0.16842 	0 0.0105187 	-0.167149 	0 0.0113471 	-0.165849 	0 0.0121813 	-0.164531 	0 0.0130214 	-0.163196 	0 0.0139115 	-0.161809 	0 0.0149194 	-0.160313 	0 0.0158742 	-0.158746 	0 0.0168369 	-0.157157 	0 0.0178079 	-0.155545 	0 0.0189012 	-0.153857 	0 0.0200551 	-0.15211 	0 0.021154 	-0.150243 	0 0.022264 	-0.148347 	0 0.0234355 	-0.146417 	0 0.02473 	-0.144442 	0 0.026057 	-0.142406 	0 0.0273218 	-0.140198 	0 0.0286118 	-0.137956 	0 0.0300738 	-0.135718 	0 0.0315551 	-0.13344 	0 0.0330939 	-0.13106 	0 0.0345529 	-0.128463 	0 0.0362033 	-0.125936 	0 0.0378803 	-0.123361 	0 0.0395832 	-0.120737 	0 0.0404144 	-0.119452 	0 0.0406058 	-0.119117 	0 0.0407975 	-0.118781 	0 0.0409894 	-0.118444 	0 0.0411851 	-0.118113 	0 0.0413917 	-0.117798 	0 0.0431727 	-0.114719 	0 0.0449802 	-0.111573 	0 0.0468145 	-0.108356 	0 0.048731 	-0.105218 	0 0.0509208 	-0.101881 	0 0.0529797 	-0.0982542 	0 0.055091 	-0.0946119 	0 0.057338 	-0.0912371 	0 0.059618 	-0.0877886 	0 0.0617921 	-0.0844771 	0 0.0619017 	-0.0842837 	0 0.0620114 	-0.0840901 	0 0.0621214 	-0.0838989 	0 0.0622345 	-0.083728 	0 0.0623491 	-0.0835545 	0 0.06469 	-0.079519 	0 0.0670533 	-0.0754058 	0 0.0694549 	-0.0713568 	0 0.0719296 	-0.0676619 	0 0.0754333 	-0.0623699 	0 0.0755868 	-0.0621014 	0 0.0757403 	-0.0618328 	0 0.0758953 	-0.0615744 	0 0.0760542 	-0.0613449 	0 0.0762092 	-0.061121 	0 0.0783492 	-0.0573901 	0 0.0804798 	-0.053631 	0 0.0826134 	-0.0500491 	0 0.0847598 	-0.0468129 	0 0.086281 	-0.044489 	0 0.0870947 	-0.0429622 	0 0.0879042 	-0.0414998 	0 0.0887127 	-0.0401924 	0 0.0895148 	-0.0388835 	0 0.0906155 	-0.0370711 	0 0.0911758 	-0.0360237 	0 0.091733 	-0.0349775 	0 0.0922872 	-0.0339328 	0 0.0928435 	-0.0329624 	0 0.0933782 	-0.03213 	0 0.0943938 	-0.0300466 	0 0.0953915 	-0.0279676 	0 0.096371 	-0.0258942 	0 0.0973433 	-0.0240992 	0 0.0982354 	-0.0224803 	0 0.098913 	-0.0207563 	0 0.0995742 	-0.0190357 	0 0.100219 	-0.0175167 	0 0.100848 	-0.0160598 	0 0.101443 	-0.0146548 	0 0.101842 	-0.0131771 	0 0.102222 	-0.011797 	0 0.102582 	-0.0105317 	0 0.102929 	-0.00926644 	0 0.103259 	-0.00802294 	0 0.103422 	-0.00671081 	0 0.103553 	-0.00555758 	0 0.103672 	-0.00442003 	0 0.103779 	-0.00328158 	0 0.103875 	-0.00215044 	0 0.103828 	-0.000960933 	0 0.103743 	9.553e-05 	0 0.103648 	0.00115382 	0 0.103544 	0.00221384 	0 0.10343 	0.00327492 	0 0.103195 	0.00441138 	0 0.102916 	0.00542459 	0 0.102629 	0.00644044 	0 0.102332 	0.00745886 	0 0.102026 	0.00848477 	0 0.101615 	0.00960085 	0 0.101168 	0.0106341 	0 0.100701 	0.011637 	0 0.100226 	0.0126434 	0 0.0997374 	0.013664 	0 0.0991562 	0.01478 	0 0.098565 	0.0158979 	0 0.0979269 	0.0169137 	0 0.0972807 	0.0179342 	0 0.0966145 	0.0189777 	0 0.095865 	0.0201186 	0 0.0951065 	0.0212641 	0 0.094339 	0.0224142 	0 0.0935332 	0.0234912 	0 0.0926896 	0.0245868 	0 0.0917711 	0.0257767 	0 0.0908443 	0.0269727 	0 0.0899093 	0.0281748 	0 0.0889661 	0.0293827 	0 0.0882986 	0.0302343 	0 0.0882327 	0.0303193 	0 0.0881668 	0.0304043 	0 0.0881008 	0.0304894 	0 0.0880348 	0.0305745 	0 0.0879685 	0.0306599 	0 0.0868817 	0.0319639 	0 0.0857814 	0.0332626 	0 0.0846741 	0.0345703 	0 0.08356 	0.0358867 	0 0.0823642 	0.0373005 	0 0.0811214 	0.0387765 	0 0.0798725 	0.0402605 	0 0.0786179 	0.0417521 	0 0.0773581 	0.0432507 	0 0.0759388 	0.0448639 	0 0.0757375 	0.0450919 	0 0.075536 	0.0453201 	0 0.0753346 	0.0455485 	0 0.0751332 	0.0457771 	0 0.074943 	0.0459931 	0 0.073704 	0.0474578 	0 0.0724651 	0.0489307 	0 0.0712271 	0.0504111 	0 0.0699904 	0.0518985 	0 0.068571 	0.0536155 	0 0.0677039 	0.0546523 	0 0.0668388 	0.0556909 	0 0.065976 	0.056731 	0 0.0651156 	0.0577724 	0 0.0644131 	0.0586263 	0 0.0635715 	0.0597085 	0 0.0627332 	0.0607919 	0 0.0618984 	0.0618763 	0 0.0610673 	0.0629614 	0 0.0601121 	0.0642148 	0 0.0592076 	0.0653693 	0 0.0583087 	0.0665232 	0 0.0574156 	0.0676764 	0 0.0565284 	0.0688285 	0 0.0557709 	0.0698179 	0 0.0546944 	0.0713123 	0 0.0536282 	0.0728047 	0 0.0525725 	0.0742947 	0 0.0515274 	0.0757816 	0 0.0502083 	0.0776738 	0 0.04984 	0.0781845 	0 0.0494732 	0.0786948 	0 0.0491079 	0.0792045 	0 0.0487441 	0.0797137 	0 0.0483961 	0.0802022 	0 0.0470056 	0.0822627 	0 0.0456379 	0.0843111 	0 0.0442871 	0.0862979 	0 0.0429587 	0.0882708 	0 0.0418149 	0.0899862 	0 0.0410378 	0.0912271 	0 0.0402687 	0.092463 	0 0.0395077 	0.0936938 	0 0.0387545 	0.0949194 	0 0.037793 	0.0964935 	0 0.0374224 	0.0970755 	0 0.0370538 	0.0976563 	0 0.0366873 	0.098236 	0 0.0363226 	0.0988145 	0 0.0359673 	0.0993802 	0 0.034827 	0.101274 	0 0.0337039 	0.103087 	0 0.0325991 	0.104888 	0 0.0315123 	0.106676 	0 0.0304975 	0.10836 	0 0.0294488 	0.110189 	0 0.0284164 	0.112007 	0 0.0273998 	0.113813 	0 0.0263982 	0.115525 	0 0.0254438 	0.117164 	0 0.0244629 	0.118935 	0 0.0234959 	0.120694 	0 0.0225424 	0.122441 	0 0.0216021 	0.124176 	0 0.0206952 	0.125804 	0 0.0201203 	0.126868 	0 0.01955 	0.127927 	0 0.0189842 	0.128981 	0 0.0184229 	0.13003 	0 0.017645 	0.13149 	0 0.0173472 	0.132034 	0 0.0170507 	0.132576 	0 0.0167555 	0.133117 	0 0.0164615 	0.133657 	0 0.0161699 	0.134195 	0 0.0152682 	0.135851 	0 0.0143793 	0.137481 	0 0.0135015 	0.139101 	0 0.0126345 	0.140712 	0 0.0117853 	0.1423 	0 0.0109193 	0.143958 	0 0.0100682 	0.145549 	0 0.0092269 	0.14713 	0 0.00839515 	0.148702 	0 0.00757667 	0.150258 	0 0.00674414 	0.151894 	0 0.00592601 	0.153458 	0 0.00511745 	0.155004 	0 0.00431733 	0.15654 	0 0.00352736 	0.158065 	0 0.00272822 	0.159666 	0 0.00194138 	0.161208 	0 0.00116419 	0.16272 	0 0.000394497 	0.164224 	0 -0.00036731 	0.165719 	0 -0.00113203 	0.167285 	0 -0.00188597 	0.168796 	0 -0.00263118 	0.170276 	0 -0.00336972 	0.171748 	0 -0.00410205 	0.173214 	0 -0.00482919 	0.174746 	0 -0.00554709 	0.176219 	0 -0.00625792 	0.177669 	0 -0.00696285 	0.179111 	0 -0.00766281 	0.180549 	0 -0.00834698 	0.182045 	0 -0.00902473 	0.183476 	0 -0.0096971 	0.184895 	0 -0.0103643 	0.186309 	0 -0.0110275 	0.187718 	0 -0.0116617 	0.189167 	0 -0.0122945 	0.190562 	0 -0.0129228 	0.191952 	0 -0.0135466 	0.193336 	0 -0.0141672 	0.194717 	0 -0.0147458 	0.196111 	0 -0.0153265 	0.197474 	0 -0.0159034 	0.198832 	0 -0.0164766 	0.200186 	0 -0.0170471 	0.201537 	0 -0.0172556 	0.202083 	0 -0.017467 	0.202622 	0 -0.017678 	0.203161 	0 -0.0178884 	0.203699 	0 -0.0180791 	0.204187 	0 -0.0183933 	0.204945 	0 -0.0187064 	0.205701 	0 -0.0190185 	0.206454 	0 -0.0193295 	0.207206 	0 -0.0196428 	0.207927 	0 -0.0200971 	0.20914 	0 -0.0205489 	0.210348 	0 -0.0209984 	0.211551 	0 -0.0214455 	0.21275 	0 -0.0219073 	0.213868 	0 -0.0222763 	0.215016 	0 -0.0226436 	0.21616 	0 -0.0230093 	0.217301 	0 -0.0233793 	0.218421 	0 -0.02378 	0.219452 	0 -0.024052 	0.220525 	0 -0.0243231 	0.221595 	0 -0.0245931 	0.222664 	0 -0.0248984 	0.223669 	0 -0.0252222 	0.224641 	0 -0.0253863 	0.225627 	0 -0.0255501 	0.226612 	0 -0.0257255 	0.227584 	0 -0.0259652 	0.228488 	0 -0.0262042 	0.22939 	0 -0.0262516 	0.230276 	0 -0.0262992 	0.231162 	0 -0.0264139 	0.232006 	0 -0.026562 	0.232829 	0 -0.0267099 	0.23365 	0 -0.0266347 	0.23442 	0 -0.0265827 	0.235184 	0 -0.026635 	0.235911 	0 -0.0266874 	0.236638 	0 -0.0267399 	0.237365 	0 -0.0265409 	0.238004 	0 -0.0264473 	0.238625 	0 -0.0264026 	0.23924 	0 -0.0263584 	0.239856 	0 -0.0263146 	0.240472 	0 -0.026028 	0.240961 	0 -0.0258889 	0.241442 	0 -0.0257504 	0.241927 	0 -0.0256125 	0.242414 	0 -0.0254754 	0.242903 	0 -0.0252466 	0.243135 	0 -0.0250867 	0.24337 	0 -0.0249271 	0.243607 	0 -0.0247677 	0.243846 	0 -0.0245