# vtk DataFile Version 2.0
track0
ASCII
DATASET POLYDATA
POINTS 20002 float
1.11022e-18 0.5 1.11022e-18
0.391304 0.5 1.11022e-18
0.391043 0.499451 1.11022e-18
0.390785 0.498901 1.11022e-18
0.390529 0.49835 1.11022e-18
0.390275 0.497798 1.11022e-18
0.39 0.497194 1.11022e-18
0.389353 0.495755 1.11022e-18
0.388722 0.49431 1.11022e-18
0.388105 0.492858 1.11022e-18
0.387503 0.4914 1.11022e-18
0.38694 0.49 1.11022e-18
0.386157 0.488 1.11022e-18
0.385398 0.485991 1.11022e-18
0.384662 0.483973 1.11022e-18
0.383949 0.481947 1.11022e-18
0.383289 0.48 1.11022e-18
0.382633 0.478 1.11022e-18
0.381997 0.475994 1.11022e-18
0.381381 0.473982 1.11022e-18
0.380782 0.471964 1.11022e-18
0.380219 0.47 1.11022e-18
0.380175 0.469842 1.11022e-18
0.380131 0.469685 1.11022e-18
0.380088 0.469527 1.11022e-18
0.380044 0.469369 1.11022e-18
0.38 0.469208 1.11022e-18
0.379495 0.467366 1.11022e-18
0.379004 0.465521 1.11022e-18
0.378526 0.463672 1.11022e-18
0.378061 0.46182 1.11022e-18
0.377618 0.46 1.11022e-18
0.377145 0.458 1.11022e-18
0.376685 0.455997 1.11022e-18
0.376238 0.453991 1.11022e-18
0.375804 0.451982 1.11022e-18
0.375391 0.45 1.11022e-18
0.374987 0.448 1.11022e-18
0.374594 0.445998 1.11022e-18
0.374213 0.443993 1.11022e-18
0.373842 0.441987 1.11022e-18
0.373488 0.44 1.11022e-18
0.373143 0.438 1.11022e-18
0.372808 0.435998 1.11022e-18
0.372483 0.433995 1.11022e-18
0.372168 0.43199 1.11022e-18
0.371866 0.43 1.11022e-18
0.371573 0.428 1.11022e-18
0.371289 0.425999 1.11022e-18
0.371014 0.423996 1.11022e-18
0.370748 0.421992 1.11022e-18
0.370493 0.42 1.11022e-18
0.370394 0.419201 1.11022e-18
0.370297 0.418402 1.11022e-18
0.370201 0.417602 1.11022e-18
0.370107 0.416803 1.11022e-18
0.37 0.415886 1.11022e-18
0.369865 0.414709 1.11022e-18
0.369733 0.413531 1.11022e-18
0.369604 0.412353 1.11022e-18
0.369478 0.411175 1.11022e-18
0.369355 0.41 1.11022e-18
0.369151 0.408 1.11022e-18
0.368955 0.405999 1.11022e-18
0.368766 0.403998 1.11022e-18
0.368586 0.401995 1.11022e-18
0.368414 0.4 1.11022e-18
0.368249 0.398 1.11022e-18
0.368092 0.395999 1.11022e-18
0.367942 0.393998 1.11022e-18
0.3678 0.391997 1.11022e-18
0.367666 0.39 1.11022e-18
0.36754 0.388 1.11022e-18
0.36742 0.386 1.11022e-18
0.367307 0.383999 1.11022e-18
0.367202 0.381998 1.11022e-18
0.367104 0.38 1.11022e-18
0.367014 0.378 1.11022e-18
0.366931 0.376 1.11022e-18
0.366854 0.373999 1.11022e-18
0.366785 0.371998 1.11022e-18
0.366723 0.37 1.11022e-18
0.366669 0.368 1.11022e-18
0.366621 0.366 1.11022e-18
0.36658 0.364 1.11022e-18
0.366547 0.361999 1.11022e-18
0.366521 0.36 1.11022e-18
0.366503 0.358 1.11022e-18
0.366491 0.356 1.11022e-18
0.366487 0.354 1.11022e-18
0.36649 0.352 1.11022e-18
0.366501 0.35 1.11022e-18
0.366519 0.348 1.11022e-18
0.366545 0.346 1.11022e-18
0.366578 0.344 1.11022e-18
0.366619 0.342001 1.11022e-18
0.366668 0.34 1.11022e-18
0.366725 0.338 1.11022e-18
0.36679 0.336 1.11022e-18
0.366863 0.334001 1.11022e-18
0.366944 0.332002 1.11022e-18
0.367034 0.33 1.11022e-18
0.367132 0.328 1.11022e-18
0.367239 0.326 1.11022e-18
0.367355 0.324001 1.11022e-18
0.367479 0.322003 1.11022e-18
0.367614 0.32 1.11022e-18
0.367758 0.318 1.11022e-18
0.367911 0.316001 1.11022e-18
0.368074 0.314002 1.11022e-18
0.368248 0.312004 1.11022e-18
0.368432 0.31 1.11022e-18
0.368627 0.308 1.11022e-18
0.368833 0.306001 1.11022e-18
0.36905 0.304003 1.11022e-18
0.369279 0.302007 1.11022e-18
0.369521 0.3 1.11022e-18
0.369617 0.299247 1.11022e-18
0.369715 0.298494 1.11022e-18
0.369814 0.297741 1.11022e-18
0.369915 0.296988 1.11022e-18
0.37 0.296368 1.11022e-18
0.370177 0.295095 1.11022e-18
0.37036 0.293822 1.11022e-18
0.370548 0.29255 1.11022e-18
0.370742 0.291278 1.11022e-18
0.370943 0.29 1.11022e-18
0.371267 0.288 1.11022e-18
0.371607 0.286003 1.11022e-18
0.371962 0.284008 1.11022e-18
0.372333 0.282016 1.11022e-18
0.372727 0.28 1.11022e-18
0.373137 0.278 1.11022e-18
0.373565 0.276004 1.11022e-18
0.374013 0.274012 1.11022e-18
0.37448 0.272025 1.11022e-18
0.374981 0.27 1.11022e-18
0.3755 0.268 1.11022e-18
0.376043 0.266006 1.11022e-18
0.376611 0.264019 1.11022e-18
0.377205 0.26204 1.11022e-18
0.377851 0.26 1.11022e-18
0.37828 0.258711 1.11022e-18
0.378723 0.257427 1.11022e-18
0.37918 0.256148 1.11022e-18
0.379652 0.254874 1.11022e-18
0.38 0.253965 1.11022e-18
0.380312 0.253172 1.11022e-18
0.38063 0.252381 1.11022e-18
0.380954 0.251593 1.11022e-18
0.381285 0.250808 1.11022e-18
0.381633 0.25 1.11022e-18
0.382515 0.248 1.11022e-18
0.383442 0.24602 1.11022e-18
0.384416 0.244063 1.11022e-18
0.38544 0.242132 1.11022e-18
0.38665 0.24 1.11022e-18
0.38732 0.238907 1.11022e-18
0.38801 0.237826 1.11022e-18
0.388722 0.23676 1.11022e-18
0.389455 0.235708 1.11022e-18
0.39 0.234962 1.11022e-18
0.390749 0.233969 1.11022e-18
0.39152 0.232993 1.11022e-18
0.392311 0.232034 1.11022e-18
0.393125 0.231094 1.11022e-18
0.394117 0.23 1.11022e-18
0.395294 0.228778 1.11022e-18
0.396513 0.227598 1.11022e-18
0.397774 0.226464 1.11022e-18
0.399078 0.225379 1.11022e-18
0.4 0.224671 1.11022e-18
0.401291 0.223737 1.11022e-18
0.402617 0.222851 1.11022e-18
0.403975 0.222017 1.11022e-18
0.405364 0.221235 1.11022e-18
0.407771 0.22 1.11022e-18
0.408217 0.219807 1.11022e-18
0.408665 0.21962 1.11022e-18
0.409115 0.219439 1.11022e-18
0.409568 0.219262 1.11022e-18
0.41 0.2191 1.11022e-18
0.412 0.218373 1.11022e-18
0.414033 0.217744 1.11022e-18
0.416094 0.217215 1.11022e-18
0.418178 0.216782 1.11022e-18
0.42 0.216488 1.11022e-18
0.422 0.216242 1.11022e-18
0.424008 0.216072 1.11022e-18
0.426021 0.215976 1.11022e-18
0.428036 0.21595 1.11022e-18
0.43 0.215988 1.11022e-18
0.432 0.216088 1.11022e-18
0.433996 0.216246 1.11022e-18
0.435987 0.216458 1.11022e-18
0.437972 0.216724 1.11022e-18
0.44 0.217045 1.11022e-18
0.442 0.217411 1.11022e-18
0.443991 0.217822 1.11022e-18
0.445973 0.218275 1.11022e-18
0.447946 0.218769 1.11022e-18
0.45 0.219326 1.11022e-18
0.450462 0.219461 1.11022e-18
0.450923 0.219597 1.11022e-18
0.451384 0.219736 1.11022e-18
0.451844 0.219877 1.11022e-18
0.452243 0.22 1.11022e-18
0.453794 0.220486 1.11022e-18
0.455339 0.220994 1.11022e-18
0.456877 0.221522 1.11022e-18
0.458407 0.22207 1.11022e-18
0.46 0.222663 1.11022e-18
0.462 0.223436 1.11022e-18
0.463987 0.224242 1.11022e-18
0.465962 0.225078 1.11022e-18
0.467925 0.225942 1.11022e-18
0.47 0.22689 1.11022e-18
0.471312 0.227512 1.11022e-18
0.472619 0.228146 1.11022e-18
0.47392 0.228791 1.11022e-18
0.475215 0.229448 1.11022e-18
0.476281 0.23 1.11022e-18
0.477025 0.230392 1.11022e-18
0.477767 0.230787 1.11022e-18
0.478506 0.231187 1.11022e-18
0.479244 0.23159 1.11022e-18
0.48 0.232007 1.11022e-18
0.482 0.233126 1.11022e-18
0.483984 0.234273 1.11022e-18
0.485953 0.235446 1.11022e-18
0.487907 0.236644 1.11022e-18
0.49 0.237964 1.11022e-18
0.490627 0.238371 1.11022e-18
0.491253 0.238781 1.11022e-18
0.491877 0.239193 1.11022e-18
0.492499 0.239608 1.11022e-18
0.493082 0.24 1.11022e-18
0.494466 0.240938 1.11022e-18
0.49584 0.241889 1.11022e-18
0.497206 0.242853 1.11022e-18
0.498562 0.24383 1.11022e-18
0.5 0.244886 1.11022e-18
0.501364 0.245909 1.11022e-18
0.502719 0.246945 1.11022e-18
0.504063 0.247994 1.11022e-18
0.505397 0.249055 1.11022e-18
0.506562 0.25 1.11022e-18
0.507249 0.250567 1.11022e-18
0.507934 0.251138 1.11022e-18
0.508616 0.251713 1.11022e-18
0.509294 0.252291 1.11022e-18
0.51 0.252898 1.11022e-18
0.511633 0.254318 1.11022e-18
0.513247 0.25576 1.11022e-18
0.514843 0.257221 1.11022e-18
0.51642 0.258703 1.11022e-18
0.517766 0.26 1.11022e-18
0.518213 0.26044 1.11022e-18
0.518658 0.260881 1.11022e-18
0.519101 0.261325 1.11022e-18
0.519543 0.26177 1.11022e-18
0.52 0.262233 1.11022e-18
0.521519 0.263787 1.11022e-18
0.523017 0.26536 1.11022e-18
0.524494 0.266953 1.11022e-18
0.525949 0.268566 1.11022e-18
0.52721 0.27 1.11022e-18
0.527768 0.270649 1.11022e-18
0.528323 0.271302 1.11022e-18
0.528874 0.271957 1.11022e-18
0.529421 0.272615 1.11022e-18
0.53 0.273318 1.11022e-18
0.531088 0.274654 1.11022e-18
0.532161 0.276002 1.11022e-18
0.53322 0.277362 1.11022e-18
0.534265 0.278732 1.11022e-18
0.535211 0.28 1.11022e-18
0.536168 0.28131 1.11022e-18
0.537113 0.28263 1.11022e-18
0.538045 0.283959 1.11022e-18
0.538963 0.285297 1.11022e-18
0.54 0.28684 1.11022e-18
0.540415 0.287472 1.11022e-18
0.540827 0.288106 1.11022e-18
0.541235 0.288741 1.11022e-18
0.541642 0.289379 1.11022e-18
0.542033 0.29 1.11022e-18
0.543283 0.292 1.11022e-18
0.544504 0.294017 1.11022e-18
0.545697 0.296051 1.11022e-18
0.546863 0.298101 1.11022e-18
0.547909 0.3 1.11022e-18
0.548327 0.300781 1.11022e-18
0.548742 0.301564 1.11022e-18
0.549152 0.302349 1.11022e-18
0.549559 0.303137 1.11022e-18
0.55 0.304001 1.11022e-18
0.550605 0.3052 1.11022e-18
0.551201 0.306405 1.11022e-18
0.551788 0.307613 1.11022e-18
0.552367 0.308826 1.11022e-18
0.552918 0.31 1.11022e-18
0.553839 0.312 1.11022e-18
0.554738 0.31401 1.11022e-18
0.555615 0.31603 1.11022e-18
0.556469 0.318059 1.11022e-18
0.557262 0.32 1.11022e-18
0.55781 0.32138 1.11022e-18
0.558348 0.322763 1.11022e-18
0.558877 0.32415 1.11022e-18
0.559396 0.32554 1.11022e-18
0.56 0.327192 1.11022e-18
0.560201 0.327753 1.11022e-18
0.5604 0.328316 1.11022e-18
0.560597 0.328878 1.11022e-18
0.560793 0.329441 1.11022e-18
0.560986 0.33 1.11022e-18
0.561671 0.332 1.11022e-18
0.562339 0.334006 1.11022e-18
0.562989 0.336018 1.11022e-18
0.563621 0.338035 1.11022e-18
0.564219 0.34 1.11022e-18
0.564809 0.342 1.11022e-18
0.565384 0.344005 1.11022e-18
0.565944 0.346013 1.11022e-18
0.566488 0.348027 1.11022e-18
0.567004 0.35 1.11022e-18
0.567512 0.352 1.11022e-18
0.568005 0.354004 1.11022e-18
0.568484 0.356011 1.11022e-18
0.568949 0.358021 1.11022e-18
0.569392 0.36 1.11022e-18
0.569514 0.36056 1.11022e-18
0.569634 0.361121 1.11022e-18
0.569754 0.361681 1.11022e-18
0.569872 0.362242 1.11022e-18
0.57 0.362853 1.11022e-18
0.570296 0.364282 1.11022e-18
0.570585 0.365713 1.11022e-18
0.570868 0.367145 1.11022e-18
0.571144 0.368579 1.11022e-18
0.571412 0.37 1.11022e-18
0.571778 0.372 1.11022e-18
0.572134 0.374002 1.11022e-18
0.572476 0.376006 1.11022e-18
0.572807 0.378013 1.11022e-18
[...]
POINT_DATA 20002
 FIELD attributes 1
U 3 20002 float
-2.37377e-19 	-8.58748e-18 	0
0.0761217 	0.160156 	0 0.0756898 	0.161015 	0 0.0752588 	0.16187 	0 0.0748288 	0.162721 	0 0.0743996 	0.163568 	0 0.0739318 	0.164489 	0 0.0728204 	0.166653 	0 0.0717152 	0.168792 	0 0.0706162 	0.170907 	0 0.0695233 	0.172996 	0 0.0684838 	0.174972 	0 0.0671546 	0.177757 	0 0.0658365 	0.180502 	0 0.0644413 	0.183119 	0 0.0629773 	0.185617 	0 0.0615826 	0.187967 	0 0.0603198 	0.190328 	0 0.0590637 	0.192652 	0 0.0578144 	0.194939 	0 0.0565718 	0.197191 	0 0.0553449 	0.199316 	0 0.0552488 	0.199472 	0 0.0551526 	0.199627 	0 0.0550565 	0.199782 	0 0.0549604 	0.199936 	0 0.0548621 	0.200094 	0 0.0537421 	0.201846 	0 0.0526254 	0.203571 	0 0.051512 	0.20527 	0 0.0504018 	0.206941 	0 0.0493158 	0.208556 	0 0.0483073 	0.2103 	0 0.047222 	0.211938 	0 0.0460384 	0.213448 	0 0.0448568 	0.214929 	0 0.0436945 	0.216358 	0 0.0427076 	0.217772 	0 0.0417226 	0.219161 	0 0.0407158 	0.220503 	0 0.0395577 	0.221667 	0 0.0384126 	0.22279 	0 0.0374431 	0.223895 	0 0.0364744 	0.224977 	0 0.0355064 	0.226035 	0 0.0345216 	0.227054 	0 0.0333967 	0.227891 	0 0.0324433 	0.228708 	0 0.0314898 	0.229502 	0 0.0305362 	0.230274 	0 0.0295825 	0.231025 	0 0.028591 	0.231705 	0 0.0282164 	0.231924 	0 0.0278418 	0.232139 	0 0.027467 	0.232352 	0 0.027092 	0.23256 	0 0.0266622 	0.232796 	0 0.0261092 	0.233069 	0 0.025556 	0.233336 	0 0.0250025 	0.233595 	0 0.0244487 	0.233848 	0 0.0238963 	0.234094 	0 0.0230253 	0.23442 	0 0.0221015 	0.234667 	0 0.0211764 	0.234895 	0 0.02025 	0.235103 	0 0.019326 	0.23529 	0 0.0185332 	0.235465 	0 0.0176248 	0.235488 	0 0.0167148 	0.235492 	0 0.0158031 	0.235477 	0 0.0148922 	0.235442 	0 0.0141207 	0.23541 	0 0.013256 	0.235257 	0 0.0123597 	0.235049 	0 0.0114613 	0.234823 	0 0.0105627 	0.234577 	0 0.00979304 	0.234329 	0 0.00896755 	0.234003 	0 0.00808246 	0.233595 	0 0.00719496 	0.233167 	0 0.00630629 	0.232719 	0 0.00553676 	0.232261 	0 0.0047323 	0.231751 	0 0.00385491 	0.231148 	0 0.00297476 	0.230526 	0 0.00209253 	0.229883 	0 0.0013206 	0.229219 	0 0.000522198 	0.228514 	0 -0.000352345 	0.227721 	0 -0.00123002 	0.226907 	0 -0.00211073 	0.226071 	0 -0.00288834 	0.225203 	0 -0.00369411 	0.224294 	0 -0.004572 	0.223309 	0 -0.00545347 	0.222301 	0 -0.00633903 	0.221271 	0 -0.00712661 	0.220193 	0 -0.00795323 	0.219071 	0 -0.00884134 	0.217888 	0 -0.00973357 	0.216681 	0 -0.0106312 	0.215448 	0 -0.0114337 	0.214154 	0 -0.0122955 	0.212808 	0 -0.0132006 	0.211418 	0 -0.0141106 	0.21 	0 -0.0150276 	0.208553 	0 -0.0158503 	0.207031 	0 -0.0167628 	0.20545 	0 -0.0176916 	0.203838 	0 -0.0186262 	0.202196 	0 -0.0195702 	0.200517 	0 -0.0204467 	0.198742 	0 -0.0213997 	0.19692 	0 -0.0223595 	0.195065 	0 -0.0233262 	0.193177 	0 -0.0243058 	0.191244 	0 -0.0246543 	0.190475 	0 -0.0250255 	0.189698 	0 -0.025398 	0.188915 	0 -0.0257716 	0.188128 	0 -0.0260806 	0.187474 	0 -0.026708 	0.186134 	0 -0.0273384 	0.184779 	0 -0.0279721 	0.183409 	0 -0.0286089 	0.182023 	0 -0.029292 	0.180627 	0 -0.0303024 	0.178309 	0 -0.0313219 	0.17595 	0 -0.0323508 	0.173548 	0 -0.0334029 	0.17111 	0 -0.0345682 	0.168629 	0 -0.0356301 	0.165988 	0 -0.0367038 	0.163297 	0 -0.0377895 	0.160556 	0 -0.0389943 	0.157813 	0 -0.0402397 	0.154952 	0 -0.0413707 	0.151924 	0 -0.0425189 	0.148837 	0 -0.0437937 	0.145742 	0 -0.0450868 	0.14258 	0 -0.0464459 	0.13923 	0 -0.0472387 	0.136966 	0 -0.0480969 	0.1347 	0 -0.0489838 	0.13241 	0 -0.0498809 	0.130085 	0 -0.0505311 	0.128392 	0 -0.0510824 	0.126957 	0 -0.0516374 	0.125509 	0 -0.0521961 	0.124047 	0 -0.0527793 	0.122587 	0 -0.053414 	0.121087 	0 -0.0548593 	0.117169 	0 -0.0563335 	0.113156 	0 -0.0578529 	0.109057 	0 -0.0595141 	0.10494 	0 -0.0614155 	0.100201 	0 -0.0623463 	0.0975662 	0 -0.0632978 	0.0948989 	0 -0.0643268 	0.0922444 	0 -0.0653701 	0.0895495 	0 -0.0661323 	0.0875777 	0 -0.0671121 	0.0850493 	0 -0.0681032 	0.0824883 	0 -0.0691167 	0.0799047 	0 -0.0702006 	0.0773426 	0 -0.0715015 	0.0742606 	0 -0.0729019 	0.0705776 	0 -0.0743254 	0.0668404 	0 -0.0758183 	0.0631001 	0 -0.0773714 	0.0593514 	0 -0.0784488 	0.0567517 	0 -0.0798438 	0.0533589 	0 -0.0812496 	0.0499407 	0 -0.082732 	0.0465794 	0 -0.0842289 	0.0432104 	0 -0.0867761 	0.0374722 	0 -0.0872139 	0.0364252 	0 -0.0876521 	0.0353785 	0 -0.0880908 	0.0343324 	0 -0.0885383 	0.0333 	0 -0.0889727 	0.0323315 	0 -0.0908356 	0.0280701 	0 -0.092695 	0.0238332 	0 -0.0945465 	0.0196302 	0 -0.0964196 	0.0155348 	0 -0.098053 	0.0120672 	0 -0.0996802 	0.00843637 	0 -0.101288 	0.00485391 	0 -0.102876 	0.0013251 	0 -0.104479 	-0.00204744 	0 -0.10602 	-0.00528686 	0 -0.107427 	-0.00848034 	0 -0.108811 	-0.0116237 	0 -0.110172 	-0.0147168 	0 -0.111527 	-0.0176886 	0 -0.112899 	-0.0206615 	0 -0.114093 	-0.0235319 	0 -0.115265 	-0.0263572 	0 -0.116416 	-0.0291381 	0 -0.117545 	-0.0318753 	0 -0.118709 	-0.0346513 	0 -0.118934 	-0.0352526 	0 -0.119158 	-0.0358518 	0 -0.119381 	-0.036449 	0 -0.119602 	-0.0370442 	0 -0.119794 	-0.0375584 	0 -0.12048 	-0.0395957 	0 -0.121152 	-0.0416111 	0 -0.12181 	-0.0436047 	0 -0.122454 	-0.045577 	0 -0.123113 	-0.0476163 	0 -0.123761 	-0.0501517 	0 -0.124387 	-0.0526506 	0 -0.124987 	-0.0550323 	0 -0.125567 	-0.0573603 	0 -0.126163 	-0.0598062 	0 -0.126407 	-0.0613269 	0 -0.126643 	-0.0628344 	0 -0.126871 	-0.0643286 	0 -0.127091 	-0.0658098 	0 -0.127267 	-0.0670238 	0 -0.12735 	-0.0679058 	0 -0.127431 	-0.0687836 	0 -0.127508 	-0.0696572 	0 -0.127583 	-0.0705267 	0 -0.127656 	-0.0714158 	0 -0.127645 	-0.0737434 	0 -0.127612 	-0.0760394 	0 -0.127547 	-0.078238 	0 -0.127456 	-0.0803742 	0 -0.127338 	-0.082655 	0 -0.127226 	-0.0833206 	0 -0.127112 	-0.0839835 	0 -0.126996 	-0.0846439 	0 -0.126879 	-0.0853016 	0 -0.126767 	-0.085917 	0 -0.126443 	-0.0874846 	0 -0.126109 	-0.0890395 	0 -0.125765 	-0.0905818 	0 -0.125412 	-0.0921114 	0 -0.125025 	-0.093731 	0 -0.124485 	-0.0952256 	0 -0.123937 	-0.0967068 	0 -0.123381 	-0.0981745 	0 -0.122816 	-0.0996288 	0 -0.122312 	-0.100896 	0 -0.12199 	-0.101711 	0 -0.121666 	-0.102522 	0 -0.121339 	-0.103329 	0 -0.12101 	-0.104133 	0 -0.120664 	-0.104969 	0 -0.119658 	-0.106837 	0 -0.11864 	-0.108683 	0 -0.11761 	-0.110509 	0 -0.116568 	-0.112313 	0 -0.115659 	-0.113852 	0 -0.115347 	-0.114416 	0 -0.115035 	-0.114978 	0 -0.114722 	-0.115538 	0 -0.114408 	-0.116097 	0 -0.11408 	-0.116675 	0 -0.112802 	-0.118503 	0 -0.111515 	-0.12031 	0 -0.110219 	-0.122097 	0 -0.108914 	-0.123863 	0 -0.107759 	-0.125397 	0 -0.107249 	-0.126156 	0 -0.106737 	-0.126912 	0 -0.106224 	-0.127665 	0 -0.10571 	-0.128414 	0 -0.105162 	-0.129208 	0 -0.103992 	-0.130595 	0 -0.102818 	-0.13197 	0 -0.101642 	-0.133334 	0 -0.100463 	-0.134686 	0 -0.0993782 	-0.135917 	0 -0.0983099 	-0.137327 	0 -0.0972398 	-0.138727 	0 -0.096168 	-0.140118 	0 -0.0950947 	-0.141499 	0 -0.0938636 	-0.14307 	0 -0.0933126 	-0.143638 	0 -0.0927616 	-0.144205 	0 -0.0922107 	-0.144769 	0 -0.0916599 	-0.145333 	0 -0.0911251 	-0.145878 	0 -0.089513 	-0.147862 	0 -0.0879032 	-0.149832 	0 -0.0862618 	-0.151713 	0 -0.0845719 	-0.153468 	0 -0.0830173 	-0.155059 	0 -0.0824252 	-0.155785 	0 -0.0818332 	-0.156508 	0 -0.0812412 	-0.157228 	0 -0.0806492 	-0.157944 	0 -0.0800012 	-0.158725 	0 -0.0790378 	-0.159662 	0 -0.0780756 	-0.160594 	0 -0.0771146 	-0.161521 	0 -0.0761548 	-0.162442 	0 -0.0752297 	-0.163326 	0 -0.0737982 	-0.165036 	0 -0.072371 	-0.166733 	0 -0.070906 	-0.168332 	0 -0.0693684 	-0.169764 	0 -0.0679059 	-0.171108 	0 -0.066966 	-0.172183 	0 -0.0660272 	-0.173249 	0 -0.0650894 	-0.174307 	0 -0.0641528 	-0.175357 	0 -0.0630444 	-0.176592 	0 -0.062649 	-0.176939 	0 -0.0622539 	-0.177285 	0 -0.0618592 	-0.177631 	0 -0.0614648 	-0.177975 	0 -0.0610744 	-0.178316 	0 -0.0598003 	-0.179666 	0 -0.0584231 	-0.180806 	0 -0.0570482 	-0.181931 	0 -0.0556757 	-0.183044 	0 -0.0543444 	-0.184111 	0 -0.0531489 	-0.185362 	0 -0.0519562 	-0.186601 	0 -0.0507591 	-0.187815 	0 -0.0494233 	-0.188761 	0 -0.0481175 	-0.18967 	0 -0.0469452 	-0.19073 	0 -0.0457743 	-0.191776 	0 -0.0446046 	-0.192808 	0 -0.0434362 	-0.193827 	0 -0.0422313 	-0.194714 	0 -0.0419049 	-0.194953 	0 -0.0415785 	-0.195191 	0 -0.0412521 	-0.195427 	0 -0.0409258 	-0.195662 	0 -0.0405706 	-0.195916 	0 -0.0397191 	-0.196371 	0 -0.0388682 	-0.196822 	0 -0.0380179 	-0.197267 	0 -0.0371681 	-0.197708 	0 -0.0363266 	-0.19814 	0 -0.0352827 	-0.198846 	0 -0.0340912 	-0.199306 	0 -0.0328996 	-0.199755 	0 -0.0317078 	-0.200193 	0 -0.0305285 	-0.200615 	0 -0.0294974 	-0.201142 	0 -0.0284382 	-0.201618 	0 -0.027235 	-0.201872 	0 -0.0260307 	-0.202112 	0 -0.0248351 	-0.202338 	0 -0.0237808 	-0.202634 	0 -0.0227257 	-0.202918 	0 -0.0215958 	-0.203094 	0 -0.0203671 	-0.203128 	0 -0.0191439 	-0.203147 	0 -0.0180548 	-0.203198 	0 -0.0169639 	-0.203236 	0 -0.0158714 	-0.203261 	0 -0.0146231 	-0.203098 	0 -0.0133614 	-0.202902 	0 -0.0122266 	-0.202697 	0 -0.0110892 	-0.202477 	0 -0.00994919 	-0.202242 	0 -0.00871207 	-0.201906 	0 -0.00740066 	-0.201485 	0 -0.00620994 	-0.201013 	0 -0.00501563 	-0.200525 	0 -0.00381773 	-0.20002 	0 -0.00255166 	-0.199455 	0 -0.00117908 	-0.198801 	0 7.74475e-05 	-0.198052 	0 0.00133872 	-0.197286 	0 0.00260475 	-0.196501 	0 0.00393828 	-0.19567 	0 0.00538427 	-0.194773 	0 0.00671695 	-0.193739 	0 0.00805577 	-0.192685 	0 0.00940074 	-0.191609 	0 0.0108411 	-0.190498 	0 0.0123747 	-0.189347 	0 0.0137956 	-0.188016 	0 0.0152243 	-0.186662 	0 0.0166609 	-0.185285 	0 0.0182514 	-0.183899 	0 0.0198902 	-0.18248 	0 0.0214136 	-0.18084 	0 0.022947 	-0.179174 	0 0.0245485 	-0.177504 	0 0.0262812 	-0.17585 	0 0.0280476 	-0.174146 	0 0.0296905 	-0.172183 	0 0.0313463 	-0.170191 	0 0.0331978 	-0.168285 	0 0.0350663 	-0.166348 	0 0.0369904 	-0.164338 	0 0.0387748 	-0.162034 	0 0.0407384 	-0.159843 	0 0.0427505 	-0.157645 	0 0.0447821 	-0.155412 	0 0.0469075 	-0.153063 	0 0.0470798 	-0.152828 	0 0.0472671 	-0.15261 	0 0.0474577 	-0.152395 	0 0.0476484 	-0.15218 	0 0.0478302 	-0.151974 	0 0.0497194 	-0.149614 	0 0.0516233 	-0.147219 	0 0.0535418 	-0.144789 	0 0.0555118 	-0.142384 	0 0.0577345 	-0.140008 	0 0.059977 	-0.137082 	0 0.0622406 	-0.134115 	0 0.064637 	-0.131309 	0 0.0671266 	-0.128592 	0 0.069895 	-0.125555 	0 0.070846 	-0.124282 	0 0.0718173 	-0.123037 	0 0.0728539 	-0.121905 	0 0.0738942 	-0.120769 	0 0.0747608 	-0.119822 	0 0.0764043 	-0.117741 	0 0.0780535 	-0.115644 	0 0.0797079 	-0.113531 	0 0.0814744 	-0.111638 	0 0.0834725 	-0.109516 	0 0.0855491 	-0.106849 	0 0.0876339 	-0.104167 	0 0.0898548 	-0.101764 	0 0.0921062 	-0.0994044 	0 0.0937463 	-0.0976819 	0 0.0946945 	-0.0964754 	0 0.095642 	-0.095266 	0 0.0966157 	-0.0941213 	0 0.0976216 	-0.093057 	0 0.0987413 	-0.0918684 	0 0.100688 	-0.0893919 	0 0.102634 	-0.0869118 	0 0.104632 	-0.0845691 	0 0.106707 	-0.0824281 	0 0.108381 	-0.0806967 	0 0.109752 	-0.0788797 	0 0.111117 	-0.0770611 	0 0.112546 	-0.0754456 	0 0.11398 	-0.0738612 	0 0.115759 	-0.0718833 	0 0.116604 	-0.0707637 	0 0.117447 	-0.0696454 	0 0.118288 	-0.0685285 	0 0.119181 	-0.0675642 	0 0.120024 	-0.0666731 	0 0.121903 	-0.0639437 	0 0.123762 	-0.0612177 	0 0.125657 	-0.0586944 	0 0.127585 	-0.0563577 	0 0.12927 	-0.0542952 	0 0.130227 	-0.0526314 	0 0.131196 	-0.0510801 	0 0.132175 	-0.0496325 	0 0.133145 	-0.0481849 	0 0.134443 	-0.0462291 	0 0.134839 	-0.0455305 	0 0.135234 	-0.0448325 	0 0.135628 	-0.0441353 	0 0.136027 	-0.0434673 	0 0.136436 	-0.0428894 	0 0.137478 	-0.0405595 	0 0.138503 	-0.0382324 	0 0.13951 	-0.0359088 	0 0.140524 	-0.0337674 	0 0.141492 	-0.031878 	0 0.142192 	-0.0295275 	0 0.142873 	-0.0271778 	0 0.143539 	-0.0249644 	0 0.144192 	-0.0229228 	0 0.144807 	-0.0209469 	0 0.145165 	-0.0185292 	0 0.145499 	-0.0161418 	0 0.145793 	-0.0140117 	0 0.146069 	-0.0118786 	0 0.146323 	-0.00978406 	0 0.146334 	-0.00726451 	0 0.146298 	-0.00488093 	0 0.146217 	-0.00263092 	0 0.146118 	-0.000376214 	0 0.146002 	0.00186694 	0 0.14566 	0.00451646 	0 0.145256 	0.00702453 	0 0.144801 	0.00942126 	0 0.144328 	0.0118244 	0 0.143833 	0.0142496 	0 0.143132 	0.0170558 	0 0.142397 	0.0198332 	0 0.141569 	0.0224051 	0 0.140724 	0.024985 	0 0.139841 	0.0276372 	0 0.138772 	0.030632 	0 0.137686 	0.0336313 	0 0.136582 	0.0366337 	0 0.135376 	0.0394353 	0 0.13409 	0.0423826 	0 0.132798 	0.0452842 	0 0.131495 	0.0481888 	0 0.130184 	0.0510949 	0 0.128863 	0.054001 	0 0.128267 	0.0553036 	0 0.127935 	0.0560254 	0 0.127601 	0.0567473 	0 0.127267 	0.0574691 	0 0.126933 	0.0581908 	0 0.126589 	0.0589307 	0 0.124842 	0.0626672 	0 0.12301 	0.0662678 	0 0.121178 	0.0698693 	0 0.119347 	0.0734688 	0 0.11723 	0.0776302 	0 0.116068 	0.0799178 	0 0.114909 	0.0821996 	0 0.113754 	0.0844749 	0 0.112601 	0.0867431 	0 0.111729 	0.0884593 	0 0.11065 	0.090618 	0 0.109574 	0.0927695 	0 0.108503 	0.0949135 	0 0.107436 	0.0970494 	0 0.106224 	0.0994763 	0 0.104707 	0.102512 	0 0.103201 	0.105526 	0 0.101706 	0.108519 	0 0.100224 	0.111488 	0 0.0990578 	0.113825 	0 0.0979761 	0.116061 	0 0.096902 	0.118283 	0 0.0958356 	0.120491 	0 0.0947768 	0.122686 	0 0.093531 	0.12527 	0 0.0925365 	0.127319 	0 0.0915493 	0.129355 	0 0.0905695 	0.131377 	0 0.089597 	0.133386 	0 0.0887172 	0.135204 	0 0.0868835 	0.139194 	0 0.0850793 	0.143131 	0 0.0833044 	0.147018 	0 0.0815583 	0.150853 	0 0.0799874 	0.154064 	0 0.0797969 	0.154465 	0 0.0796067 	0.154866 	0 0.0794167 	0.155266 	0 0.079227 	0.155666 	0 0.07903 	0.156081 	0 0.0776083 	0.159033 	0 0.0762008 	0.161947 	0 0.0748075 	0.164825 	0 0.073428 	0.167666 	0 0.072154 	0.170284 	0 0.0707913 	0.173346 	0 0.0694446 	0.176369 	0 0.0681135 	0.179353 	0 0.0667104 	0.182211 	0 0.0653154 	0.18481 	0 0.0646268 	0.186227 	0 0.0639413 	0.187633 	0 0.0632586 	0.189029 	0 0.0625789 	0.190414 	0 0.0617873 	0.192022 	0 0.061238 	0.193105 	0 0.0606906 	0.194181 	0 0.060145 	0.195251 	0 0.0596012 	0.196315 	0 0.0590663 	0.19736 	0 0.0580125 	0.199721 	0 0.0567849 	0.201874 	0 0.0555635 	0.203995 	0 0.0543483 	0.206086 	0 0.0531676 	0.208099 	0 0.0521506 	0.210108 	0 0.0511391 	0.212091 	0 0.0500932 	0.21401 	0 0.0489011 	0.215752 	0 0.0477323 	0.217438 	0 0.0467366 	0.219112 	0 0.0457442 	0.220761 	0 0.0447553 	0.222386 	0 0.0437696 	0.223988 	0 0.0426451 	0.225394 	0 0.0419623 	0.22634 	0 0.0412804 	0.227274 	0 0.0405994 	0.228197 	0 0.0399193 	0.229109 	0 0.0390985 	0.230199 	0 0.0388327 	0.230527 	0 0.0385671 	0.230855 	0 0.0383016 	0.23118 	0 0.0380362 	0.231505 	0 0.0377716 	0.231827 	0 0.0368518 	0.232877 	0 0.035884 	0.233854 	0 0.034917 	0.234812 	0 0.0339507 	0.23575 	0 0.0329922 	0.236663 	0 0.0322063 	0.237582 	0 0.0312782 	0.238325 	0 0.0303237 	0.23902 	0 0.0293691 	0.239695 	0 0.0284197 	0.240347 	0 0.0276371 	0.241009 	0 0.026834 	0.241632 	0 0.0258935 	0.242081 	0 0.0249523 	0.24251 	0 0.0240144 	0.242919 	0 0.0232354 	0.243338 	0 0.022456 	0.243741 	0 0.0215946 	0.244033 	0 0.020668 	0.244233 	0 0.0197433 	0.244413 	0 0.0189682 	0.244602 	0 0.0181922 	0.244776 	0 0.0174004 	0.244916 	0 0.0164888 	0.244901 	0 0.0155778 	0.244867 	0 0.0148064 	0.244837 	0 0.0140336 	0.244792 	0 0.0132596 	0.244731 	0 0.01239 	0.244545 	0 0.0114922 	0.244309 	0 0.0107236 	0.244071 	0 0.00995335 	0.243817 	0 0.00918144 	0.243547 	0 0.00834864 	0.243194 	0 0.00746206 	0.242765 	0 0.00669476 	0.242326 	0 0.00592549 	0.241871 	0 0.00515423 	0.241398 	0 0.00434182 	0.240868 	0 0.00346329 	0.240254 	0 0.00269518 	0.239619 	0 0.00192476 	0.238966 	0 0.00115203 	0.238297 	0 0.000346282 	0.237581 	0 -0.000528724 	0.236783 	0 -0.00130054 	0.235954 	0 -0.00207502 	0.235106 	0 -0.00285218 	0.23424 	0 -0.00366371 	0.23333 	0 -0.00454109 	0.232349 	0 -0.0053204 	0.231322 	0 -0.0061028 	0.230277 	0 -0.0068883 	0.229211 	0 -0.00771812 	0.228099 	0 -0.00860442 	0.226929 	0 -0.00939552 	0.2257 	0 -0.0101902 	0.22445 	0 -0.0109885 	0.223178 	0 -0.0118498 	0.221855 	0 -0.0127514 	0.220487 	0 -0.0135586 	0.219045 	0 -0.0143699 	0.217581 	0 -0.0151856 	0.216094 	0 -0.0160923 	0.21455 	0 -0.0170155 	0.212971 	0 -0.0178429 	0.211305 	0 -0.0186754 	0.209613 	0 -0.01954 	0.207888 	0 -0.0204811 	0.206118 	0 -0.0214325 	0.204311 	0 -0.022285 	0.202402 	0 -0.0231436 	0.200464 	0 -0.0240832 	0.198487 	0 -0.0250565 	0.196473 	0 -0.0260435 	0.194412 	0 -0.026927 	0.192237 	0 -0.0278499 	0.190027 	0 -0.0288539 	0.187779 	0 -0.0298671 	0.185493 	0 -0.0308994 	0.183145 	0 -0.0318217 	0.180671 	0 -0.0328602 	0.178162 	0 -0.0339119 	0.175609 	0 -0.0349753 	0.17301 	0 -0.0360661 	0.170326 	0 -0.0363142 	0.169618 	0 -0.0365876 	0.168909 	0 -0.0368619 	0.168198 	0 -0.0371372 	0.167483 	0 -0.037384 	0.166841 	0 -0.0381966 	0.164707 	0 -0.0390167 	0.162543 	0 -0.0398445 	0.160349 	0 -0.0406804 	0.158125 	0 -0.0416194 	0.155867 	0 -0.0427434 	0.15272 	0 -0.0438841 	0.149513 	0 -0.0450424 	0.146243 	0 -0.0463088 	0.142954 	0 -0.0476672 	0.139484 	0 -0.0488863 	0.135853 	0 -0.0501351 	0.132148 	0 -0.051518 	0.128422 	0 -0.0529286 	0.124608 	0 -0.054463 	0.120444 	0 -0.0548962 	0.119091 	0 -0.055349 	0.117736 	0 -0.0558258 	0.116384 	0 -0.0563064 	0.11502 	0 -0.0567157 	0.113859 	0 -0.0577654 	0.110894 	0 -0.0588324 	0.10788 	0 -0.0599172 	0.104813 	0 -0.0610789 	0.101741 	0 -0.0624138 	0.0983094 	0 -0.0640675 	0.0934751 	0 -0.0657769 	0.0885248 	0 -0.0676458 	0.0835468 	0 -0.0695667 	0.0784401 	0 -0.0706162 	0.0756558 	0 -0.0709717 	0.07472 	0 -0.0713288 	0.0737806 	0 -0.0716966 	0.072847 	0 -0.0720789 	0.0719232 	0 -0.0724959 	0.0709156 	0 -0.074435 	0.0657151 	0 -0.0764257 	0.0604204 	0 -0.078512 	0.0551005 	0 -0.0806959 	0.0497755 	0 -0.082019 	0.0465707 	0 -0.0831716 	0.0437799 	0 -0.0843399 	0.0409964 	0 -0.0855535 	0.0382698 	0 -0.0867709 	0.0355419 	0 -0.0889074 	0.0307676 	0 -0.0895312 	0.0293077 	0 -0.0901562 	0.027851 	0 -0.0907821 	0.0263978 	0 -0.0914127 	0.0249578 	0 -0.0920222 	0.0236254 	0 -0.0938181 	0.0196292 	0 -0.0956121 	0.0156754 	0 -0.0974009 	0.0117706 	0 -0.0991903 	0.0079528 	0 -0.100845 	0.00457321 	0 -0.102449 	0.00116999 	0 -0.104038 	-0.00218015 	0 -0.105612 	-0.005476 	0 -0.107175 	-0.00868018 	0 -0.108735 	-0.0117654 	0 -0.110153 	-0.0147537 	0 -0.111554 	-0.0176931 	0 -0.112939 	-0.0205843 	0 -0.114306 	-0.0234279 	0 -0.115709 	-0.0262664 	0 -0.116201 	-0.0273355 	0 -0.116691 	-0.028398 	0 -0.117179 	-0.0294539 	0 -0.117664 	-0.0305033 	0 -0.118003 	-0.0312359 	0 -0.118718 	-0.0328972 	0 -0.119425 	-0.0345434 	0 -0.120125 	-0.0361747 	0 -0.120816 	-0.0377914 	0 -0.121522 	-0.039445 	0 -0.122471 	-0.0420068 	0 -0.123398 	-0.0444607 	0 -0.124306 	-0.0468448 	0 -0.125197 	-0.0491981 	0 -0.126119 	-0.0516496 	0 -0.126832 	-0.053977 	0 -0.12753 	-0.0562735 	0 -0.128211 	-0.0585398 	0 -0.128878 	-0.0607763 	0 -0.129565 	-0.0630925 	0 -0.129582 	-0.0631717 	0 -0.129599 	-0.0632509 	0 -0.129616 	-0.0633301 	0 -0.129633 	-0.0634093 	0 -0.12965 	-0.0634877 	0 -0.129975 	-0.0655885 	0 -0.130285 	-0.0676669 	0 -0.13058 	-0.0697232 	0 -0.13086 	-0.0717575 	0 -0.131143 	-0.0738925 	0 -0.131194 	-0.0757449 	0 -0.131234 	-0.0775777 	0 -0.131262 	-0.0793912 	0 -0.131279 	-0.0811854 	0 -0.131283 	-0.0826609 	0 -0.131267 	-0.0829919 	0 -0.131249 	-0.0833224 	0 -0.131232 	-0.0836522 	0 -0.131213 	-0.0839815 	0 -0.131195 	-0.0843141 	0 -0.130844 	-0.0864394 	0 -0.130458 	-0.0884704 	0 -0.130048 	-0.0904423 	0 -0.129624 	-0.0923958 	0 -0.129149 	-0.0944919 	0 -0.128925 	-0.09508 	0 -0.1287 	-0.0956663 	0 -0.128474 	-0.0962507 	0 -0.128246 	-0.0968332 	0 -0.128029 	-0.0973845 	0 -0.127451 	-0.0988505 	0 -0.126866 	-0.100307 	0 -0.126273 	-0.101754 	0 -0.125674 	-0.103192 	0 -0.125022 	-0.104726 	0 -0.124391 	-0.1058 	0 -0.123756 	-0.106867 	0 -0.123117 	-0.107929 	0 -0.122476 	-0.108984 	0 -0.121885 	-0.109944 	0 -0.121268 	-0.111024 	0 -0.120648 	-0.112099 	0 -0.120024 	-0.113169 	0 -0.119398 	-0.114234 	0 -0.118724 	-0.115368 	0 -0.117794 	-0.116579 	0 -0.116861 	-0.117783 	0 -0.115924 	-0.11898 	0 -0.114984 	-0.12017 	0 -0.114125 	-0.121247 	0 -0.113349 	-0.122345 	0 -0.112571 	-0.123439 	0 -0.111791 	-0.124529 	0 -0.111009 	-0.125614 	0 -0.110157 	-0.126789 	0 -0.109237 	-0.127789 	0 -0.108316 	-0.128786 	0 -0.107395 	-0.129778 	0 -0.106473 	-0.130766 	0 -0.105612 	-0.131684 	0 -0.104389 	-0.133213 	0 -