# vtk DataFile Version 2.0
track0
ASCII
DATASET POLYDATA
POINTS 10518 float
1.11022e-18 0.5 1.11022e-18
0.391304 0.5 1.11022e-18
0.393043 0.498595 1.11022e-18
0.394764 0.497166 1.11022e-18
0.396465 0.495714 1.11022e-18
0.398146 0.49424 1.11022e-18
0.4 0.492567 1.11022e-18
0.400552 0.492054 1.11022e-18
0.401101 0.491538 1.11022e-18
0.401647 0.491019 1.11022e-18
0.402192 0.490498 1.11022e-18
0.402708 0.49 1.11022e-18
0.404166 0.488579 1.11022e-18
0.405606 0.487139 1.11022e-18
0.407027 0.485681 1.11022e-18
0.408428 0.484204 1.11022e-18
0.41 0.482502 1.11022e-18
0.410448 0.482002 1.11022e-18
0.410895 0.4815 1.11022e-18
0.411339 0.480995 1.11022e-18
0.411781 0.480489 1.11022e-18
0.412204 0.48 1.11022e-18
0.413763 0.478184 1.11022e-18
0.415293 0.476343 1.11022e-18
0.416794 0.474478 1.11022e-18
0.418264 0.472589 1.11022e-18
0.42 0.470284 1.11022e-18
0.420041 0.470227 1.11022e-18
0.420082 0.470171 1.11022e-18
0.420123 0.470114 1.11022e-18
0.420164 0.470057 1.11022e-18
0.420205 0.47 1.11022e-18
0.421645 0.468 1.11022e-18
0.423051 0.465976 1.11022e-18
0.424423 0.46393 1.11022e-18
0.425761 0.461861 1.11022e-18
0.426921 0.46 1.11022e-18
0.427537 0.45898 1.11022e-18
0.428144 0.457955 1.11022e-18
0.428743 0.456925 1.11022e-18
0.429333 0.45589 1.11022e-18
0.43 0.454699 1.11022e-18
0.430515 0.453759 1.11022e-18
0.431022 0.452816 1.11022e-18
0.431524 0.451869 1.11022e-18
0.432018 0.450918 1.11022e-18
0.432488 0.45 1.11022e-18
0.433494 0.448 1.11022e-18
0.43447 0.445985 1.11022e-18
0.435416 0.443956 1.11022e-18
0.436331 0.441912 1.11022e-18
0.437155 0.44 1.11022e-18
0.437724 0.438629 1.11022e-18
0.438279 0.437252 1.11022e-18
0.438821 0.43587 1.11022e-18
0.439349 0.434482 1.11022e-18
0.44 0.432721 1.11022e-18
0.440194 0.432177 1.11022e-18
0.440386 0.431632 1.11022e-18
0.440576 0.431087 1.11022e-18
0.440763 0.43054 1.11022e-18
0.440947 0.43 1.11022e-18
0.441619 0.428 1.11022e-18
0.442265 0.425991 1.11022e-18
0.442884 0.423974 1.11022e-18
0.443476 0.421949 1.11022e-18
0.444019 0.42 1.11022e-18
0.444551 0.418 1.11022e-18
0.445058 0.415993 1.11022e-18
0.445539 0.41398 1.11022e-18
0.445995 0.411962 1.11022e-18
0.446414 0.41 1.11022e-18
0.446817 0.408 1.11022e-18
0.447197 0.405995 1.11022e-18
0.447552 0.403986 1.11022e-18
0.447885 0.401973 1.11022e-18
0.448189 0.4 1.11022e-18
0.448475 0.398 1.11022e-18
0.448738 0.395997 1.11022e-18
0.448979 0.393991 1.11022e-18
0.449199 0.391983 1.11022e-18
0.449395 0.39 1.11022e-18
0.449516 0.388637 1.11022e-18
0.449627 0.387273 1.11022e-18
0.449729 0.385908 1.11022e-18
0.449821 0.384543 1.11022e-18
0.45 0.381612 1.11022e-18
0.450015 0.38129 1.11022e-18
0.45003 0.380967 1.11022e-18
0.450044 0.380645 1.11022e-18
0.450057 0.380322 1.11022e-18
0.45007 0.38 1.11022e-18
0.450149 0.378 1.11022e-18
0.450208 0.375999 1.11022e-18
0.450249 0.373998 1.11022e-18
0.450271 0.371997 1.11022e-18
0.450276 0.37 1.11022e-18
0.450263 0.368 1.11022e-18
0.450233 0.366 1.11022e-18
0.450186 0.364001 1.11022e-18
0.450122 0.362002 1.11022e-18
0.450042 0.36 1.11022e-18
0.450033 0.359827 1.11022e-18
0.450025 0.359655 1.11022e-18
0.450016 0.359482 1.11022e-18
0.450008 0.35931 1.11022e-18
0.45 0.359161 1.11022e-18
0.449906 0.357329 1.11022e-18
0.449798 0.355497 1.11022e-18
0.449678 0.353667 1.11022e-18
0.449545 0.351837 1.11022e-18
0.449399 0.35 1.11022e-18
0.449227 0.348 1.11022e-18
0.44904 0.346001 1.11022e-18
0.44884 0.344004 1.11022e-18
0.448626 0.342008 1.11022e-18
0.448397 0.34 1.11022e-18
0.448157 0.338 1.11022e-18
0.447903 0.336002 1.11022e-18
0.447637 0.334005 1.11022e-18
0.447358 0.33201 1.11022e-18
0.447066 0.33 1.11022e-18
0.446764 0.328 1.11022e-18
0.44645 0.326002 1.11022e-18
0.446124 0.324005 1.11022e-18
0.445788 0.322011 1.11022e-18
0.445439 0.32 1.11022e-18
0.445082 0.318 1.11022e-18
0.444714 0.316002 1.11022e-18
0.444336 0.314006 1.11022e-18
0.443949 0.312011 1.11022e-18
0.443549 0.31 1.11022e-18
0.443143 0.308 1.11022e-18
0.442727 0.306002 1.11022e-18
0.442304 0.304005 1.11022e-18
0.441872 0.302011 1.11022e-18
0.441428 0.3 1.11022e-18
0.441142 0.298729 1.11022e-18
0.440854 0.297459 1.11022e-18
0.440562 0.29619 1.11022e-18
0.440268 0.294921 1.11022e-18
0.44 0.293778 1.11022e-18
0.439821 0.293023 1.11022e-18
0.439642 0.292267 1.11022e-18
0.439461 0.291512 1.11022e-18
0.43928 0.290757 1.11022e-18
0.439097 0.29 1.11022e-18
0.438611 0.288 1.11022e-18
0.43812 0.286001 1.11022e-18
0.437622 0.284004 1.11022e-18
0.437119 0.282009 1.11022e-18
0.436608 0.28 1.11022e-18
0.436093 0.278 1.11022e-18
0.435572 0.276001 1.11022e-18
0.435047 0.274004 1.11022e-18
0.434517 0.272008 1.11022e-18
0.43398 0.27 1.11022e-18
0.43344 0.268 1.11022e-18
0.432896 0.266001 1.11022e-18
0.432348 0.264003 1.11022e-18
0.431796 0.262007 1.11022e-18
0.431237 0.26 1.11022e-18
0.43099 0.259117 1.11022e-18
0.430742 0.258233 1.11022e-18
0.430493 0.25735 1.11022e-18
0.430244 0.256468 1.11022e-18
0.43 0.255606 1.11022e-18
0.429682 0.254485 1.11022e-18
0.429363 0.253364 1.11022e-18
0.429043 0.252243 1.11022e-18
0.428722 0.251123 1.11022e-18
0.4284 0.25 1.11022e-18
0.427824 0.248 1.11022e-18
0.427246 0.246001 1.11022e-18
0.426666 0.244002 1.11022e-18
0.426084 0.242004 1.11022e-18
0.425498 0.24 1.11022e-18
0.424911 0.238 1.11022e-18
0.424323 0.236001 1.11022e-18
0.423732 0.234002 1.11022e-18
0.42314 0.232003 1.11022e-18
0.422545 0.23 1.11022e-18
0.422036 0.22829 1.11022e-18
0.421526 0.226579 1.11022e-18
0.421015 0.224869 1.11022e-18
0.420504 0.22316 1.11022e-18
0.42 0.22148 1.11022e-18
0.419911 0.221184 1.11022e-18
0.419822 0.220888 1.11022e-18
0.419733 0.220592 1.11022e-18
0.419644 0.220296 1.11022e-18
0.419555 0.22 1.11022e-18
0.418954 0.218 1.11022e-18
0.418352 0.216 1.11022e-18
0.417749 0.214001 1.11022e-18
0.417145 0.212001 1.11022e-18
0.416541 0.21 1.11022e-18
0.415936 0.208 1.11022e-18
0.415331 0.206 1.11022e-18
0.414724 0.204001 1.11022e-18
0.414117 0.202002 1.11022e-18
0.413509 0.2 1.11022e-18
0.412901 0.198 1.11022e-18
0.412293 0.196 1.11022e-18
0.411684 0.194001 1.11022e-18
0.411075 0.192001 1.11022e-18
0.410464 0.19 1.11022e-18
0.410371 0.189696 1.11022e-18
0.410278 0.189392 1.11022e-18
0.410186 0.189088 1.11022e-18
0.410093 0.188784 1.11022e-18
0.41 0.18848 1.11022e-18
0.409482 0.186784 1.11022e-18
0.408964 0.185088 1.11022e-18
0.408445 0.183392 1.11022e-18
0.407926 0.181697 1.11022e-18
0.407406 0.18 1.11022e-18
0.406792 0.178 1.11022e-18
0.406177 0.176001 1.11022e-18
0.40556 0.174002 1.11022e-18
0.404943 0.172003 1.11022e-18
0.404324 0.17 1.11022e-18
0.403706 0.168 1.11022e-18
0.403085 0.166001 1.11022e-18
0.402463 0.164002 1.11022e-18
0.401839 0.162003 1.11022e-18
0.401212 0.16 1.11022e-18
0.400969 0.159227 1.11022e-18
0.400727 0.158454 1.11022e-18
0.400484 0.157681 1.11022e-18
0.400241 0.156908 1.11022e-18
0.4 0.156145 1.11022e-18
0.399612 0.154916 1.11022e-18
0.399223 0.153687 1.11022e-18
0.398834 0.152459 1.11022e-18
0.398443 0.151231 1.11022e-18
0.39805 0.15 1.11022e-18
0.39741 0.148 1.11022e-18
0.396765 0.146002 1.11022e-18
0.396117 0.144004 1.11022e-18
0.395465 0.142008 1.11022e-18
0.394806 0.14 1.11022e-18
0.394146 0.138 1.11022e-18
0.39348 0.136002 1.11022e-18
0.392809 0.134006 1.11022e-18
0.392132 0.132011 1.11022e-18
0.391443 0.13 1.11022e-18
0.391155 0.129163 1.11022e-18
0.390865 0.128326 1.11022e-18
0.390574 0.127489 1.11022e-18
0.390282 0.126653 1.11022e-18
0.39 0.125851 1.11022e-18
0.389587 0.124681 1.11022e-18
0.389172 0.123511 1.11022e-18
0.388754 0.122343 1.11022e-18
0.388333 0.121176 1.11022e-18
0.387905 0.12 1.11022e-18
0.387173 0.118 1.11022e-18
0.386428 0.116004 1.11022e-18
0.385672 0.114013 1.11022e-18
0.384906 0.112026 1.11022e-18
0.384114 0.11 1.11022e-18
0.383319 0.108 1.11022e-18
0.38251 0.106006 1.11022e-18
0.381687 0.104018 1.11022e-18
0.380849 0.102035 1.11022e-18
0.38 0.100069 1.11022e-18
0.379994 0.100055 1.11022e-18
0.379988 0.100041 1.11022e-18
0.379982 0.100027 1.11022e-18
0.379976 0.100014 1.11022e-18
0.37997 0.1 1.11022e-18
0.379088 0.098 1.11022e-18
0.378186 0.096009 1.11022e-18
0.377264 0.0940273 1.11022e-18
0.376322 0.0920552 1.11022e-18
0.375313 0.09 1.11022e-18
0.374304 0.088 1.11022e-18
0.373268 0.0860137 1.11022e-18
0.372205 0.0840416 1.11022e-18
0.371116 0.0820841 1.11022e-18
0.37 0.0801433 1.11022e-18
0.369983 0.0801146 1.11022e-18
0.369966 0.080086 1.11022e-18
0.369949 0.0800573 1.11022e-18
0.369932 0.0800287 1.11022e-18
0.369915 0.08 1.11022e-18
0.368725 0.078 1.11022e-18
0.367499 0.076022 1.11022e-18
0.366237 0.0740667 1.11022e-18
0.36494 0.072135 1.11022e-18
0.363448 0.07 1.11022e-18
0.362758 0.0690556 1.11022e-18
0.362059 0.0681183 1.11022e-18
0.36135 0.0671883 1.11022e-18
0.360632 0.0662656 1.11022e-18
0.36 0.0654712 1.11022e-18
0.359114 0.064377 1.11022e-18
0.358212 0.0632954 1.11022e-18
0.357296 0.0622266 1.11022e-18
0.356364 0.0611707 1.11022e-18
0.355302 0.06 1.11022e-18
0.354242 0.0588666 1.11022e-18
0.353164 0.0577501 1.11022e-18
0.352068 0.0566506 1.11022e-18
0.350956 0.0555682 1.11022e-18
0.35 0.0546661 1.11022e-18
0.348986 0.0537329 1.11022e-18
0.347958 0.0528153 1.11022e-18
0.346916 0.0519131 1.11022e-18
0.345861 0.0510264 1.11022e-18
0.344604 0.05 1.11022e-18
0.343683 0.0492735 1.11022e-18
0.342754 0.0485578 1.11022e-18
0.341816 0.0478529 1.11022e-18
0.340871 0.0471587 1.11022e-18
0.34 0.0465336 1.11022e-18
0.33814 0.0452269 1.11022e-18
0.33625 0.0439654 1.11022e-18
0.33433 0.042748 1.11022e-18
0.332385 0.041573 1.11022e-18
0.33 0.0401997 1.11022e-18
0.329927 0.0401598 1.11022e-18
0.329853 0.0401199 1.11022e-18
0.32978 0.0400801 1.11022e-18
0.329707 0.0400403 1.11022e-18
0.329632 0.04 1.11022e-18
0.327706 0.0389601 1.11022e-18
0.32576 0.0379564 1.11022e-18
0.323797 0.0369875 1.11022e-18
0.321818 0.0360519 1.11022e-18
0.32 0.0352278 1.11022e-18
0.318 0.034354 1.11022e-18
0.315985 0.0335146 1.11022e-18
0.313957 0.0327078 1.11022e-18
0.311917 0.0319319 1.11022e-18
0.31 0.0312336 1.11022e-18
0.309298 0.0309869 1.11022e-18
0.308594 0.0307436 1.11022e-18
0.30789 0.0305037 1.11022e-18
0.307184 0.0302671 1.11022e-18
0.306375 0.03 1.11022e-18
0.3051 0.0295862 1.11022e-18
[...]
POINT_DATA 10518
 FIELD attributes 1
U 3 10518 float
-1.69858e-20 	-2.41148e-19 	0
-0.00253944 	0.00205228 	0 -0.00250037 	0.00207623 	0 -0.00246159 	0.00210069 	0 -0.00242253 	0.0021252 	0 -0.00238191 	0.00214869 	0 -0.00233691 	0.00217551 	0 -0.00232424 	0.00218359 	0 -0.0023116 	0.00219173 	0 -0.00229858 	0.00219948 	0 -0.00228529 	0.00220698 	0 -0.00227268 	0.00221417 	0 -0.00223689 	0.00223676 	0 -0.00220139 	0.00225981 	0 -0.00216523 	0.00228221 	0 -0.00212829 	0.0023038 	0 -0.00208662 	0.00232889 	0 -0.00207532 	0.00233629 	0 -0.00206405 	0.00234374 	0 -0.00205262 	0.00235093 	0 -0.00204085 	0.00235763 	0 -0.00202956 	0.00236412 	0 -0.00198745 	0.00239107 	0 -0.00194577 	0.00241869 	0 -0.00190313 	0.00244465 	0 -0.0018603 	0.00247021 	0 -0.00180922 	0.00250183 	0 -0.00180806 	0.00250263 	0 -0.0018069 	0.00250343 	0 -0.00180574 	0.00250422 	0 -0.00180453 	0.00250491 	0 -0.00180333 	0.00250561 	0 -0.00176015 	0.00253323 	0 -0.00171743 	0.00256158 	0 -0.00167494 	0.00259008 	0 -0.00163156 	0.00261588 	0 -0.00159338 	0.00263947 	0 -0.00157237 	0.00265429 	0 -0.00155139 	0.00266904 	0 -0.00152989 	0.0026821 	0 -0.00150851 	0.00269534 	0 -0.00148415 	0.00271072 	0 -0.00146604 	0.00272324 	0 -0.00144802 	0.0027359 	0 -0.00143008 	0.00274869 	0 -0.00141188 	0.00276017 	0 -0.00139434 	0.00277091 	0 -0.00135514 	0.0027978 	0 -0.00131635 	0.00282532 	0 -0.00127756 	0.00285136 	0 -0.00123875 	0.00287583 	0 -0.00120305 	0.00289916 	0 -0.00117688 	0.00291855 	0 -0.00115066 	0.00293662 	0 -0.0011244 	0.00295355 	0 -0.00109834 	0.00297077 	0 -0.00106564 	0.00299289 	0 -0.00105602 	0.00300002 	0 -0.00104642 	0.0030072 	0 -0.00103685 	0.00301441 	0 -0.00102728 	0.0030213 	0 -0.00101779 	0.00302737 	0 -0.000981073 	0.0030533 	0 -0.00094472 	0.0030798 	0 -0.000908732 	0.00310684 	0 -0.000873008 	0.00313184 	0 -0.000839034 	0.00315457 	0 -0.000802792 	0.00318182 	0 -0.000766914 	0.00320961 	0 -0.000731399 	0.00323511 	0 -0.000696242 	0.00325946 	0 -0.000662503 	0.00328358 	0 -0.000626605 	0.0033122 	0 -0.000591161 	0.00333902 	0 -0.000556161 	0.00336411 	0 -0.000521507 	0.00338973 	0 -0.000487935 	0.00341529 	0 -0.000452371 	0.00344435 	0 -0.000417455 	0.00347025 	0 -0.000382877 	0.00349668 	0 -0.000348634 	0.00352362 	0 -0.00031519 	0.00355068 	0 -0.000291271 	0.00357023 	0 -0.000267666 	0.00358872 	0 -0.000244212 	0.00360745 	0 -0.000220907 	0.00362643 	0 -0.000171227 	0.00366763 	0 -0.000165866 	0.00367231 	0 -0.000160512 	0.003677 	0 -0.000155165 	0.00368169 	0 -0.000149825 	0.00368641 	0 -0.000144522 	0.00369098 	0 -0.000110199 	0.00371934 	0 -7.615e-05 	0.00374819 	0 -4.23714e-05 	0.0037775 	0 -8.86022e-06 	0.00380726 	0 2.41784e-05 	0.00383679 	0 5.82328e-05 	0.00386639 	0 9.20304e-05 	0.00389645 	0 0.000125575 	0.00392697 	0 0.000158869 	0.00395793 	0 0.000191948 	0.00398928 	0 0.000194854 	0.00399194 	0 0.000197758 	0.00399459 	0 0.00020066 	0.00399726 	0 0.00020356 	0.00399992 	0 0.000206064 	0.00400223 	0 0.000236663 	0.00403085 	0 0.000267042 	0.00405988 	0 0.000297206 	0.0040893 	0 0.000327158 	0.00411911 	0 0.000357032 	0.00414942 	0 0.000390361 	0.0041833 	0 0.000422991 	0.00421611 	0 0.000455391 	0.00424939 	0 0.000487566 	0.0042831 	0 0.000519735 	0.00431748 	0 0.000553262 	0.00435519 	0 0.000585126 	0.00438919 	0 0.000616791 	0.00442363 	0 0.000648259 	0.00445849 	0 0.00067979 	0.00449404 	0 0.000712658 	0.00453309 	0 0.000744864 	0.00457137 	0 0.000775603 	0.00460681 	0 0.000806176 	0.00464265 	0 0.000836857 	0.0046792 	0 0.000868687 	0.00471895 	0 0.000900353 	0.00475909 	0 0.000931466 	0.00479871 	0 0.000960908 	0.00483532 	0 0.000990484 	0.00487262 	0 0.00102099 	0.00491281 	0 0.00105137 	0.00495334 	0 0.00108162 	0.00499421 	0 0.00111173 	0.00503541 	0 0.0011401 	0.00507355 	0 0.00115844 	0.00509915 	0 0.00117674 	0.00512488 	0 0.001195 	0.00515073 	0 0.00121322 	0.0051767 	0 0.0012296 	0.00520022 	0 0.00124021 	0.00521649 	0 0.00125081 	0.00523281 	0 0.00126139 	0.00524916 	0 0.00127196 	0.00526556 	0 0.00128254 	0.00528205 	0 0.00131051 	0.00532637 	0 0.00133687 	0.00536851 	0 0.00136315 	0.00541093 	0 0.00138936 	0.00545361 	0 0.00141568 	0.00549686 	0 0.00144265 	0.00554204 	0 0.00146954 	0.00558749 	0 0.00149442 	0.00563041 	0 0.00151845 	0.00567242 	0 0.00154258 	0.00571493 	0 0.00156713 	0.00575882 	0 0.00159162 	0.00580292 	0 0.00161607 	0.00584723 	0 0.00164047 	0.00589173 	0 0.00166247 	0.00593356 	0 0.00167208 	0.00595215 	0 0.00168168 	0.00597076 	0 0.00169127 	0.00598941 	0 0.00170086 	0.0060081 	0 0.00171022 	0.00602636 	0 0.00172233 	0.00605157 	0 0.00173443 	0.00607683 	0 0.00174652 	0.00610214 	0 0.00175861 	0.0061275 	0 0.00177071 	0.00615296 	0 0.001793 	0.00619873 	0 0.00181213 	0.00624157 	0 0.0018308 	0.0062841 	0 0.00184946 	0.00632675 	0 0.00186816 	0.00636965 	0 0.0018874 	0.00641215 	0 0.00190662 	0.00645476 	0 0.00192582 	0.0064975 	0 0.00194197 	0.0065378 	0 0.00195743 	0.00657768 	0 0.00197101 	0.00661072 	0 0.00198458 	0.00664381 	0 0.00199816 	0.00667696 	0 0.00201172 	0.00671017 	0 0.00202506 	0.00674286 	0 0.00202749 	0.00674907 	0 0.00202992 	0.00675527 	0 0.00203235 	0.00676147 	0 0.00203478 	0.00676768 	0 0.00203721 	0.00677389 	0 0.00205182 	0.00681191 	0 0.00206495 	0.00684911 	0 0.00207808 	0.00688633 	0 0.00209122 	0.0069236 	0 0.00210437 	0.00696094 	0 0.00211886 	0.00699525 	0 0.00213335 	0.00702964 	0 0.00214535 	0.00706292 	0 0.00215504 	0.00709514 	0 0.00216475 	0.00712741 	0 0.00217589 	0.00715552 	0 0.00218703 	0.00718368 	0 0.00219817 	0.0072119 	0 0.00220932 	0.00724016 	0 0.00221883 	0.00726794 	0 0.00222001 	0.00727119 	0 0.0022212 	0.00727445 	0 0.00222238 	0.00727771 	0 0.00222357 	0.00728097 	0 0.00222475 	0.00728422 	0 0.002233 	0.00730498 	0 0.00224126 	0.00732577 	0 0.00224952 	0.00734659 	0 0.00225778 	0.00736745 	0 0.00226606 	0.00738835 	0 0.00227892 	0.00740628 	0 0.00229104 	0.00742426 	0 0.00229801 	0.00744171 	0 0.00230498 	0.00745918 	0 0.00231198 	0.00747673 	0 0.0023224 	0.00748618 	0 0.00233286 	0.00749579 	0 0.00234335 	0.00750556 	0 0.00235387 	0.00751548 	0 0.00235916 	0.00752564 	0 0.00236241 	0.00752591 	0 0.00236566 	0.00752621 	0 0.00236892 	0.00752654 	0 0.00237219 	0.00752689 	0 0.00237542 	0.00752727 	0 0.00238277 	0.00752957 	0 0.00239014 	0.00753196 	0 0.00239754 	0.00753445 	0 0.00240497 	0.00753702 	0 0.00241245 	0.00753969 	0 0.00243039 	0.00753238 	0 0.00244454 	0.00752641 	0 0.00245578 	0.00752149 	0 0.00246713 	0.00751685 	0 0.00247866 	0.00751247 	0 0.00249645 	0.007495 	0 0.00251444 	0.00747807 	0 0.00253261 	0.00746169 	0 0.00255035 	0.00744608 	0 0.00256229 	0.00743321 	0 0.0025701 	0.00742174 	0 0.00257796 	0.00741037 	0 0.00258586 	0.00739912 	0 0.00259382 	0.00738799 	0 0.00260149 	0.00737742 	0 0.00261624 	0.00736313 	0 0.00263113 	0.00734912 	0 0.00264615 	0.00733539 	0 0.00266131 	0.00732193 	0 0.00267673 	0.00730864 	0 0.00271172 	0.00726834 	0 0.00274479 	0.00723081 	0 0.00277363 	0.0071974 	0 0.00280303 	0.00716499 	0 0.0028336 	0.0071329 	0 0.00287289 	0.00708236 	0 0.00291294 	0.00703332 	0 0.00295375 	0.00698578 	0 0.00299533 	0.00693978 	0 0.0030375 	0.00689552 	0 0.00303786 	0.00689522 	0 0.00303823 	0.00689492 	0 0.00303859 	0.00689462 	0 0.00303896 	0.00689433 	0 0.00303933 	0.00689403 	0 0.00309528 	0.00683338 	0 0.00315246 	0.00677498 	0 0.00321107 	0.00671869 	0 0.00327113 	0.00666453 	0 0.00333557 	0.00661008 	0 0.00340773 	0.0065342 	0 0.00348173 	0.00646136 	0 0.00355758 	0.00639159 	0 0.00363528 	0.00632495 	0 0.00371477 	0.00626152 	0 0.00371621 	0.00626057 	0 0.00371765 	0.00625963 	0 0.00371909 	0.00625869 	0 0.00372053 	0.00625775 	0 0.00372198 	0.0062568 	0 0.00382313 	0.00616846 	0 0.00392704 	0.00608493 	0 0.00403422 	0.00600556 	0 0.00414466 	0.00593041 	0 0.00427187 	0.00585105 	0 0.00433003 	0.00580421 	0 0.00438908 	0.00575867 	0 0.00444901 	0.00571445 	0 0.00450982 	0.00567154 	0 0.00456335 	0.00563545 	0 0.00465174 	0.00558113 	0 0.00474179 	0.00552893 	0 0.00483346 	0.00547883 	0 0.00492671 	0.00543083 	0 0.00503316 	0.0053793 	0 0.00513193 	0.00531393 	0 0.00523272 	0.00525147 	0 0.00533549 	0.00519191 	0 0.00544018 	0.00513522 	0 0.00553041 	0.00508963 	0 0.0056417 	0.00503522 	0 0.00575484 	0.00498324 	0 0.00586976 	0.00493367 	0 0.00598641 	0.00488646 	0 0.00612576 	0.00483359 	0 0.00621499 	0.0047869 	0 0.00630553 	0.00474199 	0 0.00639734 	0.00469883 	0 0.00649041 	0.00465742 	0 0.00657658 	0.00462111 	0 0.00678578 	0.00452737 	0 0.00700036 	0.00444056 	0 0.00721996 	0.0043604 	0 0.00744424 	0.00428663 	0 0.00772075 	0.00420707 	0 0.00773029 	0.0042044 	0 0.00773984 	0.00420174 	0 0.0077494 	0.00419909 	0 0.00775896 	0.00419644 	0 0.00776866 	0.00419377 	0 0.00797201 	0.00411253 	0 0.00818075 	0.00403748 	0 0.00839457 	0.00396836 	0 0.00861312 	0.00390487 	0 0.00881641 	0.00385184 	0 0.00905635 	0.00377326 	0 0.00930101 	0.00370024 	0 0.00955006 	0.00363248 	0 0.00980324 	0.00356986 	0 0.0100501 	0.00353073 	0 0.0101459 	0.0035087 	0 0.0102422 	0.00348727 	0 0.010339 	0.00346641 	0 0.0104362 	0.00344611 	0 0.0105479 	0.00342352 	0 0.0106794 	0.00338947 	0 0.0108129 	0.00335682 	0 0.0109483 	0.00332556 	0 0.0110856 	0.00329562 	0 0.0112219 	0.00326754 	0 0.0114195 	0.00320044 	0 0.0116414 	0.00314644 	0 0.0118808 	0.00310204 	0 0.0121246 	0.00306073 	0 0.0123662 	0.00302336 	0 0.01259 	0.00296387 	0 0.0128181 	0.00290741 	0 0.0130502 	0.00285382 	0 0.0133211 	0.00281812 	0 0.0135927 	0.00278658 	0 0.0138414 	0.00273365 	0 0.0140939 	0.00268341 	0 0.01435 	0.0026357 	0 0.0146096 	0.00259042 	0 0.0148968 	0.00255825 	0 0.0150746 	0.00252701 	0 0.0152539 	0.00249679 	0 0.0154347 	0.00246754 	0 0.0156168 	0.00243924 	0 0.0158455 	0.00240512 	0 0.0159025 	0.00239589 	0 0.0159599 	0.00238678 	0 0.0160177 	0.00237777 	0 0.016076 	0.00236887 	0 0.0161345 	0.00236009 	0 0.0162886 	0.002324 	0 0.0164768 	0.00229118 	0 0.0166698 	0.00225953 	0 0.0168674 	0.00222902 	0 0.0170685 	0.00219974 	0 0.0171537 	0.00216027 	0 0.0173483 	0.00212621 	0 0.0175551 	0.00209356 	0 0.0177666 	0.00206199 	0 0.0179819 	0.00203159 	0 0.0180755 	0.00199433 	0 0.0182035 	0.00195818 	0 0.0184212 	0.00192365 	0 0.0186438 	0.00189016 	0 0.0188705 	0.00185777 	0 0.0189706 	0.00182251 	0 0.0190743 	0.00178803 	0 0.0192641 	0.00175179 	0 0.0194939 	0.00171538 	0 0.0197282 	0.00168002 	0 0.0198325 	0.00164646 	0 0.0199403 	0.00161361 	0 0.0200779 	0.00157942 	0 0.0203102 	0.001539 	0 0.0205472 	0.00149957 	0 0.0206526 	0.00146735 	0 0.0207615 	0.00143573 	0 0.0208739 	0.00140472 	0 0.0210834 	0.00136178 	0 0.0213176 	0.0013171 	0 0.0214205 	0.00128573 	0 0.0215267 	0.00125489 	0 0.0216364 	0.00122458 	0 0.0218027 	0.00118377 	0 0.0220272 	0.00113258 	0 0.0221233 	0.00110152 	0 0.0222227 	0.00107091 	0 0.0223255 	0.00104075 	0 0.0224539 	0.00100415 	0 0.0226611 	0.000945114 	0 0.0227457 	0.000913734 	0 0.0228336 	0.000882732 	0 0.0229247 	0.000852104 	0 0.0230206 	0.000821153 	0 0.0232022 	0.000752877 	0 0.02327 	0.000720463 	0 0.0233411 	0.000688358 	0 0.0234155 	0.000656557 	0 0.0234932 	0.000625057 	0 0.0236312 	0.00055298 	0 0.0236767 	0.000518739 	0 0.0237256 	0.000484734 	0 0.0237779 	0.000450964 	0 0.0238336 	0.000417426 	0 0.0239261 	0.00034111 	0 0.0239436 	0.000304096 	0 0.0239648 	0.000267237 	0 0.0239896 	0.000230532 	0 0.024018 	0.000193981 	0 0.0240628 	0.000110938 	0 0.0240465 	6.98134e-05 	0 0.0240343 	2.87418e-05 	0 0.0240262 	-1.22766e-05 	0 0.0240221 	-5.32418e-05 	0 0.0240136 	-0.000147557 	0 0.0239581 	-0.000194668 	0 0.0239073 	-0.000241875 	0 0.0238612 	-0.000289177 	0 0.0238197 	-0.000336576 	0 0.0237482 	-0.000449457 	0 0.0236489 	-0.000504888 	0 0.0235551 	-0.000560654 	0 0.023467 	-0.000616759 	0 0.0233846 	-0.000673205 	0 0.0232344 	-0.000815214 	0 0.023088 	-0.000882119 	0 0.0229486 	-0.000949766 	0 0.0228162 	-0.00101817 	0 0.022691 	-0.00108735 	0 0.0224373 	-0.00127354 	0 0.0222434 	-0.001357 	0 0.0220583 	-0.00144194 	0 0.0218824 	-0.00152838 	0 0.0216643 	-0.00165162 	0 0.0213242 	-0.00186955 	0 0.0210859 	-0.00197865 	0 0.0208596 	-0.00209058 	0 0.0206456 	-0.00220544 	0 0.0202802 	-0.00241636 	0 0.0198592 	-0.00267809 	0 0.0195851 	-0.00283033 	0 0.0193277 	-0.00298808 	0 0.0190083 	-0.00318975 	0 0.018496 	-0.00350248 	0 0.0180081 	-0.0038351 	0 0.0177147 	-0.00406628 	0 0.0174143 	-0.00432163 	0 0.0168246 	-0.00471991 	0 0.0162766 	-0.00514147 	0 0.0157472 	-0.0056113 	0 0.0155832 	-0.00583686 	0 0.0152739 	-0.00612649 	0 0.0149095 	-0.00645312 	0 0.0145648 	-0.00679287 	0 0.0143943 	-0.00697864 	0 0.014028 	-0.00730182 	0 0.0136747 	-0.00763705 	0 0.0133351 	-0.00798442 	0 0.0129787 	-0.00837502 	0 0.0125631 	-0.00886487 	0 0.0117936 	-0.00980123 	0 0.0111162 	-0.0108061 	0 0.0105089 	-0.0118495 	0 0.00999188 	-0.0129421 	0 0.00981977 	-0.0133983 	0 0.0096174 	-0.0137351 	0 0.0094222 	-0.0140753 	0 0.00926849 	-0.0143967 	0 0.00912538 	-0.0147178 	0 0.00894454 	-0.0151437 	0 0.0086601 	-0.0158282 	0 0.00840011 	-0.0165239 	0 0.00816293 	-0.0172293 	0 0.00803139 	-0.0177947 	0 0.00794662 	-0.0182522 	0 0.00755988 	-0.019067 	0 0.00720291 	-0.0198974 	0 0.00697574 	-0.0206 	0 0.00680666 	-0.0212578 	0 0.00666833 	-0.0218527 	0 0.00634717 	-0.0224639 	0 0.00614138 	-0.0229799 	0 0.00596533 	-0.0234815 	0 0.00579708 	-0.023989 	0 0.00556677 	-0.0247237 	0 0.00555164 	-0.024749 	0 0.00554191 	-0.0247704 	0 0.0055322 	-0.0247917 	0 0.0055225 	-0.0248131 	0 0.00551253 	-0.0248351 	0 0.00531856 	-0.0251791 	0 0.00512992 	-0.025533 	0 0.00494645 	-0.0258963 	0 0.00476796 	-0.0262688 	0 0.00466235 	-0.0265274 	0 0.00445585 	-0.0268232 	0 0.00425379 	-0.0271291 	0 0.00405606 	-0.0274449 	0 0.00390738 	-0.0277179 	0 0.00380201 	-0.0279496 	0 0.00360426 	-0.0281887 	0 0.00340975 	-0.0284369 	0 0.00322852 	-0.0286863 	0 0.00312399 	-0.028887 	0 0.0030219 	-0.029091 	0 0.00283752 	-0.029276 	0 0.00265541 	-0.0294692 	0 0.00252374 	-0.0296466 	0 0.00242674 	-0.0298137 	0 0.00233128 	-0.0299842 	0 0.0021619 	-0.0301172 	0 0.00199407 	-0.0302572 	0 0.00190165 	-0.0303844 	0 0.00181281 	-0.0305149 	0 0.0017249 	-0.0306487 	0 0.00157082 	-0.0307318 	0 0.00143496 	-0.0308198 	0 0.00135366 	-0.0309092 	0 0.00127271 	-0.0310019 	0 0.00119229 	-0.0310978 	0 0.00105315 	-0.0311342 	0 0.00094318 	-0.0311789 	0 0.000869421 	-0.0312316 	0 0.000795825 	-0.0312872 	0 0.000722479 	-0.0313456 	0 0.000597464 	-0.0313387 	0 0.000505772 	-0.0313459 	0 0.000438793 	-0.0313635 	0 0.00037184 	-0.0313837 	0 0.000304952 	-0.0314063 	0 0.000193106 	-0.0313603 	0 0.000113757 	-0.0313336 	0 5.27794e-05 	-0.0313185 	0 -8.27162e-06 	-0.0313056 	0 -6.93862e-05 	-0.0312951 	0 -0.000168795 	-0.0312146 	0 -0.000239959 	-0.0311568 	0 -0.000295504 	-0.0311121 	0 -0.000351195 	-0.0310694 	0 -0.000407041 	-0.0310288 	0 -0.000494664 	-0.0309188 	0 -0.000560312 	-0.0308319 	0 -0.000610818 	-0.0307613 	0 -0.000661524 	-0.0306925 	0 -0.000712452 	-0.0306255 	0 -0.000789092 	-0.0304907 	0 -0.000850816 	-0.0303767 	0 -0.000896684 	-0.0302838 	0 -0.000942795 	-0.0301926 	0 -0.000989176 	-0.0301032 	0 -0.00105577 	-0.0299483 	0 -0.00111434 	-0.0298087 	0 -0.00115603 	-0.0296975 	0 -0.00119799 	-0.0295878 	0 -0.00124026 	-0.0294797 	0 -0.00129782 	-0.0293092 	0 -0.00135337 	-0.0291457 	0 -0.00139136 	-0.0290198 	0 -0.00142966 	-0.0288954 	0 -0.00146829 	-0.0287724 	0 -0.00151784 	-0.0285904 	0 -0.00156779 	-0.0284105 	0 -0.00160481 	-0.0282675 	0 -0.00163992 	-0.0281319 	0 -0.0016754 	-0.0279976 	0 -0.00171796 	-0.0278079 	0 -0.00176094 	-0.02762 	0 -0.00179815 	-0.0274562 	0 -0.00183056 	-0.0273126 	0 -0.00186335 	-0.0271702 	0 -0.0018999 	-0.0269761 	0 -0.00193688 	-0.0267837 	0 -0.00197291 	-0.0266001 	0 -0.00200306 	-0.0264515 	0 -0.0020336 	-0.0263041 	0 -0.00206508 	-0.0261085 	0 -0.00209697 	-0.0259144 	0 -0.0021293 	-0.0257219 	0 -0.00215866 	-0.0255612 	0 -0.00218737 	-0.0254113 	0 -0.00221462 	-0.0252167 	0 -0.00224228 	-0.0250236 	0 -0.00227038 	-0.0248319 	0 -0.00229842 	-0.0246526 	0 -0.00232565 	-0.0245025 	0 -0.00234944 	-0.0243111 	0 -0.00237366 	-0.024121 	0 -0.00239829 	-0.0239323 	0 -0.00242337 	-0.023745 	0 -0.00244931 	-0.023587 	0 -0.00247033 	-0.0234005 	0 -0.00249177 	-0.0232152 	0 -0.00251364 	-0.0230313 	0 -0.00253594 	-0.0228487 	0 -0.00255909 	-0.0226726 	0 -0.00256353 	-0.0226301 	0 -0.002568 	-0.0225877 	0 -0.00257249 	-0.0225453 	0 -0.00257701 	-0.022503 	0 -0.00258138 	-0.0224623 	0 -0.00259816 	-0.0222884 	0 -0.00261527 	-0.0221149 	0 -0.00263271 	-0.0219418 	0 -0.0026505 	-0.021769 	0 -0.00266868 	-0.0215963 	0 -0.00268558 	-0.0213689 	0 -0.00270613 	-0.0211489 	0 -0.00272726 	-0.0209294 	0 -0.00274898 	-0.0207107 	0 -0.00277138 	-0.0204919 	0 -0.00278372 	-0.0202671 	0 -0.00280169 	-0.020052 	0 -0.00282207 	-0.0198407 	0 -0.00284308 	-0.0196301 	0 -0.00286478 	-0.0194195 	0 -0.00287617 	-0.0192045 	0 -0.00288812 	-0.01899 	0 -0.00290738 	-0.0187865 	0 -0.00292808 	-0.018585 	0 -0.00294951 	-0.0183833 	0 -0.00296055 	-0.0181787 	0 -0.00297217 	-0.0179746 	0 -0.00298438 	-0.0177712 	0 -0.0030047 	-0.0175787 	0 -0.00302621 	-0.0173866 	0 -0.0030374 	-0.0171927 	0 -0.00304918 	-0.0169995 	0 -0.00306157 	-0.0168068 	0 -0.00307461 	-0.0166148 	0 -0.00309553 	-0.0164316 	0 -0.00310451 	-0.0162916 	0 -0.00311384 	-0.016152 	0 -0.00312355 	-0.0160128 	0 -0.00313364 	-0.0158739 	0 -0.00314297 	-0.0157506 	0 -0.00314627 	-0.0156969 	0 -0.00314961 	-0.0156433 	0 -0.003153 	-0.0155896 	0 -0.00315644 	-0.015536 	0 -0.00315994 	-0.0154824 	0 -0.00316882 	-0.0152799 	0 -0.00318102 	-0.0150779 	0 -0.00319394 	-0.0148761 	0 -0.0032076 	-0.0146745 	0 -0.00322215 	-0.0144718 	0 -0.00322712 	-0.01428 	0 -0.00323528 	-0.0140885 	0 -0.00324965 	-0.0138976 	0 -0.00326481 	-0.013707 	0 -0.00328093 	-0.0135152 	0 -0.00328802 	-0.0133341 	0 -0.00329585 	-0.0131533 	0 -0.00330444 	-0.0129727 	0 -0.00331935 	-0.0127929 	0 -0.00333733 	-0.0126118 	0 -0.00334659 	-0.012446 	0 -0.00335659 	-0.0122805 	0 -0.00336738 	-0.0121153 	0 -0.00337897 	-0.0119504 	0 -0.00338957 	-0.01181 	0 -0.00339016 	-0.0117989 	0 -0.00339075 	-0.0117878 	0 -0.00339134 	-0.0117767 	0 -0.00339194 	-0.0117656 	0 -0.00339254 	-0.0117545 	0 -0.00340053 	-0.0115766 	0 -0.00341013 	-0.0113983 	0 -0.00342058 	-0.0112201 	0 -0.00343194 	-0.011042 	0 -0.00344441 	-0.0108613 	0 -0.00345021 	-0.0106954 	0 -0.00345688 	-0.0105296 	0 -0.00346848 	-0.010362 	0 -0.00348304 	-0.0101937 	0 -0.00349888 	-0.0100227 	0 -0.00350868 	-0.00986568 	0 -0.00351945 	-0.00970882 	0 -0.00353124 	-0.00955208 	0 -0.00354409 	-0.0093955 	0 -0.00355685 	-0.00925256 	0 -0.00355706 	-0.00924892 	0 -0.00355727 	-0.00924528 	0 -0.00355748 	-0.00924163 	0 -0.0035577 	-0.00923799 	0 -0.00355791 	-0.00923435 	0 -0.00356676 	-0.00907542 	0 -0.00357691 	-0.00891624 	0 -0.00358809 	-0.00875705 	0 -0.00360035 	-0.00859786 	0 -0.00361412 	-0.00843421 	0 -0.00362386 	-0.00828599 	0 -0.00363472 	-0.00813777 	0 -0.00364676 	-0.00798954 	0 -0.00366127 	-0.00784039 	0 -0.00368032 	-0.00768403 	0 -0.00368495 	-0.00764184 	0 -0.00368971 	-0.00759965 	0 -0.00369457 	-0.00755747 	0 -0.00369956 	-0.0075153 	0 -0.00370438 	-0.00747543 	0 -0.00371238 	-0.00737044 	0 -0.00372098 	-0.00726543 	0 -0.00373021 	-0.00716041 	0 -0.0037401 	-0.00705538 	0 -0.00375101 	-0.00694671 	0 -0.00376404 	-0.00680782 	0 -0.00377842 	-0.00666888 	0 -0.00379422 	-0.0065299 	0 -0.0038115 	-0.00639089 	0 -0.00383355 	-0.00624144 	0 -0.00383594 	-0.00622599 	0 -0.00383834 	-0.00621054 	0 -0.00384077 	-0.00619508 	0 -0.00384322 	-0.00617963 	0 -0.00384564 	-0.00616453 	0 -0.00385847 	-0.00604213 	0 -0.00387242 	-0.00591973 	0 -0.00388755 	-0.00579736 	0 -0.00390389 	-0.00567502 	0 -0.00392277 	-0.00554388 	0 -0.00393505 	-0.00546556 	0 -0.00394794 	-0.00538724 	0 -0.00396145 	-0.00530893 	0 -0.0039756 	-0.00523064 	0 -0.00398875 	-0.00516118 	0 -0.00399652 	-0.00510248 	0 -0.00400463 	-0.00504378 	0 -0.00401306 	-0.00498511 	0 -0.00402183 	-0.00492645 	0 -0.00403143 	-0.00486472 	0 -0.00404924 	-0.00476084 	0 -0.00406827 	-0.00465696 	0 -0.00408857 	-0.00455312 	0 -0.00411018 	-0.00444933 	0 -0.00412973 	-0.00436091 	0 -0.00413513 	-0.0