# vtk DataFile Version 2.0
track0
ASCII
DATASET POLYDATA
POINTS 18368 float
1.11022e-18 0.5 1.11022e-18
0.391304 0.5 1.11022e-18
0.391043 0.499139 1.11022e-18
0.390788 0.498277 1.11022e-18
0.390538 0.497412 1.11022e-18
0.390294 0.496547 1.11022e-18
0.39 0.495483 1.11022e-18
0.389706 0.494386 1.11022e-18
0.38942 0.493287 1.11022e-18
0.389142 0.492187 1.11022e-18
0.388872 0.491084 1.11022e-18
0.388614 0.49 1.11022e-18
0.388152 0.488 1.11022e-18
0.387714 0.485995 1.11022e-18
0.387298 0.483985 1.11022e-18
0.386905 0.48197 1.11022e-18
0.386541 0.48 1.11022e-18
0.386192 0.478 1.11022e-18
0.385861 0.475997 1.11022e-18
0.385549 0.473991 1.11022e-18
0.385255 0.471982 1.11022e-18
0.384982 0.47 1.11022e-18
0.384722 0.468 1.11022e-18
0.384478 0.465998 1.11022e-18
0.38425 0.463994 1.11022e-18
0.384035 0.461989 1.11022e-18
0.383837 0.46 1.11022e-18
0.383651 0.458 1.11022e-18
0.383478 0.455999 1.11022e-18
0.383317 0.453997 1.11022e-18
0.383168 0.451994 1.11022e-18
0.383032 0.45 1.11022e-18
0.382908 0.448 1.11022e-18
0.382794 0.445999 1.11022e-18
0.38269 0.443998 1.11022e-18
0.382597 0.441996 1.11022e-18
0.382514 0.44 1.11022e-18
0.382441 0.438 1.11022e-18
0.382377 0.436 1.11022e-18
0.382323 0.433999 1.11022e-18
0.382277 0.431998 1.11022e-18
0.382239 0.43 1.11022e-18
0.382211 0.428 1.11022e-18
0.38219 0.426 1.11022e-18
0.382178 0.424 1.11022e-18
0.382173 0.422 1.11022e-18
0.382175 0.42 1.11022e-18
0.382185 0.418 1.11022e-18
0.382202 0.416 1.11022e-18
0.382226 0.414 1.11022e-18
0.382257 0.412 1.11022e-18
0.382295 0.41 1.11022e-18
0.382339 0.408 1.11022e-18
0.382389 0.406 1.11022e-18
0.382446 0.404 1.11022e-18
0.382508 0.402001 1.11022e-18
0.382577 0.4 1.11022e-18
0.382651 0.398 1.11022e-18
0.382731 0.396 1.11022e-18
0.382817 0.394001 1.11022e-18
0.382908 0.392001 1.11022e-18
0.383004 0.39 1.11022e-18
0.383105 0.388 1.11022e-18
0.383212 0.386 1.11022e-18
0.383323 0.384001 1.11022e-18
0.38344 0.382002 1.11022e-18
0.383561 0.38 1.11022e-18
0.383687 0.378 1.11022e-18
0.383817 0.376 1.11022e-18
0.383952 0.374001 1.11022e-18
0.384091 0.372002 1.11022e-18
0.384235 0.37 1.11022e-18
0.384383 0.368 1.11022e-18
0.384535 0.366 1.11022e-18
0.384691 0.364001 1.11022e-18
0.384852 0.362002 1.11022e-18
0.385016 0.36 1.11022e-18
0.385184 0.358 1.11022e-18
0.385356 0.356 1.11022e-18
0.385531 0.354001 1.11022e-18
0.38571 0.352002 1.11022e-18
0.385893 0.35 1.11022e-18
0.386079 0.348 1.11022e-18
0.386269 0.346 1.11022e-18
0.386462 0.344001 1.11022e-18
0.386658 0.342002 1.11022e-18
0.386858 0.34 1.11022e-18
0.387061 0.338 1.11022e-18
0.387267 0.336 1.11022e-18
0.387475 0.334001 1.11022e-18
0.387687 0.332002 1.11022e-18
0.387902 0.33 1.11022e-18
0.38812 0.328 1.11022e-18
0.388341 0.326 1.11022e-18
0.388564 0.324001 1.11022e-18
0.38879 0.322002 1.11022e-18
0.389019 0.32 1.11022e-18
0.389215 0.318304 1.11022e-18
0.389413 0.316609 1.11022e-18
0.389613 0.314913 1.11022e-18
0.389814 0.313218 1.11022e-18
0.39 0.311668 1.11022e-18
0.39004 0.311334 1.11022e-18
0.390081 0.311001 1.11022e-18
0.390121 0.310667 1.11022e-18
0.390162 0.310334 1.11022e-18
0.390202 0.31 1.11022e-18
0.390446 0.308 1.11022e-18
0.390692 0.306 1.11022e-18
0.39094 0.304001 1.11022e-18
0.39119 0.302002 1.11022e-18
0.391443 0.3 1.11022e-18
0.391698 0.298 1.11022e-18
0.391955 0.296 1.11022e-18
0.392215 0.294001 1.11022e-18
0.392476 0.292002 1.11022e-18
0.392739 0.29 1.11022e-18
0.393004 0.288 1.11022e-18
0.393271 0.286 1.11022e-18
0.39354 0.284001 1.11022e-18
0.39381 0.282001 1.11022e-18
0.394083 0.28 1.11022e-18
0.394357 0.278 1.11022e-18
0.394633 0.276 1.11022e-18
0.394911 0.274001 1.11022e-18
0.395189 0.272001 1.11022e-18
0.39547 0.27 1.11022e-18
0.395753 0.268 1.11022e-18
0.396036 0.266 1.11022e-18
0.396321 0.264 1.11022e-18
0.396607 0.262001 1.11022e-18
0.396895 0.26 1.11022e-18
0.397184 0.258 1.11022e-18
0.397475 0.256 1.11022e-18
0.397766 0.254 1.11022e-18
0.398059 0.252001 1.11022e-18
0.398353 0.25 1.11022e-18
0.398649 0.248 1.11022e-18
0.398945 0.246 1.11022e-18
0.399242 0.244 1.11022e-18
0.399541 0.242001 1.11022e-18
0.399841 0.24 1.11022e-18
0.399873 0.239789 1.11022e-18
0.399905 0.239577 1.11022e-18
0.399936 0.239366 1.11022e-18
0.399968 0.239154 1.11022e-18
0.4 0.238944 1.11022e-18
0.40027 0.237155 1.11022e-18
0.40054 0.235366 1.11022e-18
0.400811 0.233578 1.11022e-18
0.401084 0.231789 1.11022e-18
0.401357 0.23 1.11022e-18
0.401664 0.228 1.11022e-18
0.401971 0.226 1.11022e-18
0.40228 0.224 1.11022e-18
0.402589 0.222001 1.11022e-18
0.402899 0.22 1.11022e-18
0.403212 0.218 1.11022e-18
0.403525 0.216 1.11022e-18
0.403838 0.214 1.11022e-18
0.404152 0.212001 1.11022e-18
0.404469 0.21 1.11022e-18
0.404787 0.208 1.11022e-18
0.405105 0.206 1.11022e-18
0.405424 0.204 1.11022e-18
0.405744 0.202001 1.11022e-18
0.406067 0.2 1.11022e-18
0.406391 0.198 1.11022e-18
0.406715 0.196 1.11022e-18
0.40704 0.194 1.11022e-18
0.407368 0.192001 1.11022e-18
0.407697 0.19 1.11022e-18
0.408029 0.188 1.11022e-18
0.408361 0.186 1.11022e-18
0.408694 0.184 1.11022e-18
0.409031 0.182001 1.11022e-18
0.409369 0.18 1.11022e-18
0.409495 0.17926 1.11022e-18
0.409622 0.17852 1.11022e-18
0.409748 0.17778 1.11022e-18
0.409875 0.17704 1.11022e-18
0.41 0.176314 1.11022e-18
0.410218 0.175051 1.11022e-18
0.410437 0.173789 1.11022e-18
0.410656 0.172526 1.11022e-18
0.410877 0.171264 1.11022e-18
0.411099 0.17 1.11022e-18
0.411453 0.168 1.11022e-18
0.41181 0.166 1.11022e-18
0.412169 0.164001 1.11022e-18
0.412531 0.162003 1.11022e-18
0.412898 0.16 1.11022e-18
0.41327 0.158 1.11022e-18
0.413646 0.156001 1.11022e-18
0.414025 0.154002 1.11022e-18
0.414408 0.152004 1.11022e-18
0.414798 0.15 1.11022e-18
0.415195 0.148 1.11022e-18
0.415597 0.146001 1.11022e-18
0.416004 0.144003 1.11022e-18
0.416418 0.142006 1.11022e-18
0.416843 0.14 1.11022e-18
0.417276 0.138 1.11022e-18
0.417715 0.136001 1.11022e-18
0.418163 0.134005 1.11022e-18
0.418623 0.132011 1.11022e-18
0.419097 0.13 1.11022e-18
0.419278 0.129255 1.11022e-18
0.41946 0.128509 1.11022e-18
0.419643 0.127765 1.11022e-18
0.419829 0.127021 1.11022e-18
0.42 0.126343 1.11022e-18
0.420323 0.125075 1.11022e-18
0.420652 0.123807 1.11022e-18
0.420986 0.122542 1.11022e-18
0.421327 0.121277 1.11022e-18
0.421677 0.12 1.11022e-18
0.422238 0.118 1.11022e-18
0.422817 0.116005 1.11022e-18
0.423414 0.114016 1.11022e-18
0.424031 0.112032 1.11022e-18
0.424689 0.11 1.11022e-18
0.425366 0.108 1.11022e-18
0.426069 0.106009 1.11022e-18
0.4268 0.104028 1.11022e-18
0.427563 0.102059 1.11022e-18
0.428403 0.1 1.11022e-18
0.428722 0.0992582 1.11022e-18
0.429047 0.0985187 1.11022e-18
0.429378 0.0977818 1.11022e-18
0.429714 0.0970476 1.11022e-18
0.43 0.0964387 1.11022e-18
0.430615 0.095151 1.11022e-18
0.43125 0.0938727 1.11022e-18
0.431905 0.0926045 1.11022e-18
0.432581 0.0913473 1.11022e-18
0.433335 0.09 1.11022e-18
0.434509 0.088 1.11022e-18
0.435746 0.0860388 1.11022e-18
0.437049 0.0841213 1.11022e-18
0.438423 0.082253 1.11022e-18
0.44 0.080272 1.11022e-18
0.440047 0.0802176 1.11022e-18
0.440095 0.0801632 1.11022e-18
0.440142 0.080109 1.11022e-18
0.44019 0.0800548 1.11022e-18
0.440238 0.08 1.11022e-18
0.442004 0.078 1.11022e-18
0.443866 0.0760886 1.11022e-18
0.445823 0.0742756 1.11022e-18
0.447873 0.0725676 1.11022e-18
0.45 0.0709732 1.11022e-18
0.45029 0.0707786 1.11022e-18
0.450582 0.070586 1.11022e-18
0.450874 0.0703954 1.11022e-18
0.451168 0.0702066 1.11022e-18
0.451495 0.07 1.11022e-18
0.453196 0.0689398 1.11022e-18
0.454936 0.067945 1.11022e-18
0.456713 0.0670175 1.11022e-18
0.458524 0.0661587 1.11022e-18
0.46 0.0655185 1.11022e-18
0.462 0.0647124 1.11022e-18
0.464028 0.0639791 1.11022e-18
0.466081 0.0633189 1.11022e-18
0.468152 0.0627205 1.11022e-18
0.47 0.0622453 1.11022e-18
0.471953 0.0617962 1.11022e-18
0.473917 0.0614023 1.11022e-18
0.47589 0.0610544 1.11022e-18
0.477871 0.0607524 1.11022e-18
0.48 0.0604778 1.11022e-18
0.480916 0.0603822 1.11022e-18
0.481832 0.060296 1.11022e-18
0.48275 0.0602184 1.11022e-18
0.483668 0.0601493 1.11022e-18
0.485932 0.06 1.11022e-18
0.486746 0.059965 1.11022e-18
0.48756 0.0599368 1.11022e-18
0.488374 0.0599153 1.11022e-18
0.489188 0.0599005 1.11022e-18
0.49 0.0598923 1.11022e-18
0.492 0.0598882 1.11022e-18
0.494 0.0599209 1.11022e-18
0.495999 0.0599906 1.11022e-18
0.496174 0.06 1.11022e-18
0.496939 0.0600422 1.11022e-18
0.497704 0.0600899 1.11022e-18
0.498468 0.060143 1.11022e-18
0.499233 0.0602018 1.11022e-18
0.5 0.0602663 1.11022e-18
0.502 0.0604492 1.11022e-18
0.503996 0.060669 1.11022e-18
0.505988 0.0609254 1.11022e-18
0.507975 0.0612187 1.11022e-18
0.51 0.0615567 1.11022e-18
0.512 0.0619307 1.11022e-18
0.513992 0.0623469 1.11022e-18
0.515975 0.0628017 1.11022e-18
0.517949 0.0632957 1.11022e-18
0.52 0.0638534 1.11022e-18
0.522 0.0644435 1.11022e-18
0.523986 0.0650792 1.11022e-18
0.525957 0.0657611 1.11022e-18
0.527911 0.0664891 1.11022e-18
0.53 0.0673223 1.11022e-18
0.531251 0.0678578 1.11022e-18
0.532492 0.0684135 1.11022e-18
0.533725 0.0689893 1.11022e-18
0.534948 0.0695853 1.11022e-18
0.535764 0.07 1.11022e-18
0.536611 0.0704427 1.11022e-18
0.537453 0.0708958 1.11022e-18
0.538289 0.0713591 1.11022e-18
0.539119 0.0718328 1.11022e-18
0.54 0.0723499 1.11022e-18
0.542 0.0735605 1.11022e-18
0.543962 0.0748322 1.11022e-18
0.545883 0.0761645 1.11022e-18
0.547761 0.0775566 1.11022e-18
0.55 0.0793282 1.11022e-18
0.550157 0.0794626 1.11022e-18
0.550314 0.0795974 1.11022e-18
0.55047 0.0797326 1.11022e-18
0.550626 0.0798682 1.11022e-18
0.550776 0.08 1.11022e-18
0.552621 0.081623 1.11022e-18
0.554412 0.0833049 1.11022e-18
0.556148 0.0850438 1.11022e-18
0.557828 0.0868372 1.11022e-18
0.56 0.0893088 1.11022e-18
0.560112 0.089447 1.11022e-18
0.560223 0.0895855 1.11022e-18
0.560334 0.0897242 1.11022e-18
0.560445 0.0898632 1.11022e-18
0.560554 0.09 1.11022e-18
0.562135 0.092 1.11022e-18
0.563657 0.0940453 1.11022e-18
0.56512 0.0961333 1.11022e-18
0.566525 0.0982613 1.11022e-18
0.567606 0.1 1.11022e-18
0.568085 0.100808 1.11022e-18
0.568556 0.10162 1.11022e-18
0.56902 0.102437 1.11022e-18
0.569477 0.103258 1.11022e-18
0.57 0.104217 1.11022e-18
0.570615 0.105374 1.11022e-18
[...]
POINT_DATA 18368
 FIELD attributes 1
U 3 18368 float
-1.79132e-19 	-4.4028e-18 	0
0.0152106 	0.0501968 	0 0.0149809 	0.0506053 	0 0.0147528 	0.0510124 	0 0.0145265 	0.051418 	0 0.0143017 	0.0518222 	0 0.0140279 	0.0523166 	0 0.013745 	0.0528131 	0 0.0134647 	0.0533077 	0 0.0131869 	0.0538004 	0 0.0129117 	0.0542913 	0 0.0126439 	0.0547713 	0 0.0121673 	0.0556681 	0 0.0116904 	0.0565375 	0 0.0112208 	0.0574006 	0 0.0107584 	0.0582577 	0 0.0103138 	0.0590885 	0 0.00988216 	0.0599425 	0 0.00945678 	0.0607911 	0 0.00902938 	0.061612 	0 0.00860711 	0.0624254 	0 0.00819658 	0.0632217 	0 0.00779969 	0.0640362 	0 0.00740798 	0.0648459 	0 0.00702007 	0.0656473 	0 0.00662974 	0.0664233 	0 0.00624752 	0.0671876 	0 0.00587862 	0.0679672 	0 0.00551405 	0.0687423 	0 0.00515367 	0.0695132 	0 0.0047923 	0.070265 	0 0.00443382 	0.0710001 	0 0.00408796 	0.0717484 	0 0.00374576 	0.0724926 	0 0.00340712 	0.073233 	0 0.00306958 	0.0739625 	0 0.00273123 	0.074671 	0 0.00240467 	0.0753912 	0 0.00208125 	0.0761078 	0 0.0017609 	0.0768209 	0 0.00144251 	0.0775275 	0 0.00112138 	0.0782117 	0 0.000811229 	0.0789063 	0 0.000503797 	0.0795975 	0 0.000199023 	0.0802856 	0 -0.000103732 	0.0809688 	0 -0.000409916 	0.0816305 	0 -0.000705928 	0.0823021 	0 -0.000999557 	0.0829706 	0 -0.00129086 	0.0836362 	0 -0.00158065 	0.0842965 	0 -0.00187362 	0.0849377 	0 -0.00215728 	0.0855887 	0 -0.00243885 	0.0862369 	0 -0.00271835 	0.0868824 	0 -0.00299717 	0.0875206 	0 -0.00327831 	0.0881428 	0 -0.00355106 	0.0887751 	0 -0.00382194 	0.0894049 	0 -0.00409099 	0.0900322 	0 -0.00436024 	0.090649 	0 -0.00463065 	0.0912534 	0 -0.00489352 	0.0918691 	0 -0.00515471 	0.0924825 	0 -0.00541425 	0.0930935 	0 -0.00567479 	0.0936894 	0 -0.00593531 	0.0942777 	0 -0.00618889 	0.0948782 	0 -0.00644096 	0.0954765 	0 -0.00669154 	0.0960726 	0 -0.00694383 	0.0966477 	0 -0.00719511 	0.0972211 	0 -0.00743961 	0.0978074 	0 -0.00768274 	0.0983916 	0 -0.00792548 	0.0989676 	0 -0.00816889 	0.0995284 	0 -0.00841135 	0.100088 	0 -0.00864657 	0.100661 	0 -0.00888056 	0.101231 	0 -0.00911549 	0.101787 	0 -0.00935012 	0.102335 	0 -0.00958392 	0.102881 	0 -0.0098093 	0.103441 	0 -0.010034 	0.103996 	0 -0.0102609 	0.104533 	0 -0.0104866 	0.105068 	0 -0.0107116 	0.105602 	0 -0.0109262 	0.106148 	0 -0.0111426 	0.106681 	0 -0.01136 	0.107205 	0 -0.0115764 	0.107728 	0 -0.0117921 	0.10825 	0 -0.011995 	0.10878 	0 -0.0122032 	0.109293 	0 -0.0124105 	0.109804 	0 -0.0126168 	0.110314 	0 -0.0128226 	0.110823 	0 -0.0129864 	0.111253 	0 -0.0131535 	0.111676 	0 -0.01332 	0.112098 	0 -0.0134859 	0.112519 	0 -0.0136372 	0.112903 	0 -0.0136699 	0.11298 	0 -0.0137026 	0.113057 	0 -0.0137353 	0.113134 	0 -0.0137679 	0.113211 	0 -0.0138012 	0.113285 	0 -0.0139875 	0.113734 	0 -0.0141731 	0.114182 	0 -0.0143579 	0.114628 	0 -0.0145421 	0.115072 	0 -0.0147325 	0.115495 	0 -0.0149039 	0.115922 	0 -0.0150747 	0.116347 	0 -0.0152449 	0.116772 	0 -0.0154174 	0.117188 	0 -0.0156008 	0.117578 	0 -0.0157553 	0.11798 	0 -0.0159093 	0.118381 	0 -0.0160628 	0.118781 	0 -0.0162308 	0.119155 	0 -0.0164022 	0.119522 	0 -0.0165374 	0.119895 	0 -0.0166723 	0.120267 	0 -0.0168166 	0.120627 	0 -0.0169751 	0.120968 	0 -0.0171333 	0.121308 	0 -0.0172467 	0.121648 	0 -0.0173604 	0.121986 	0 -0.0175046 	0.122297 	0 -0.0176483 	0.122607 	0 -0.0177918 	0.122917 	0 -0.0178806 	0.123217 	0 -0.0179946 	0.123501 	0 -0.0181224 	0.123776 	0 -0.0182498 	0.12405 	0 -0.018377 	0.124323 	0 -0.0184519 	0.124571 	0 -0.0185619 	0.124805 	0 -0.0186716 	0.125037 	0 -0.018781 	0.125268 	0 -0.0188903 	0.125499 	0 -0.0188957 	0.12552 	0 -0.0189052 	0.125539 	0 -0.0189148 	0.125558 	0 -0.0189243 	0.125578 	0 -0.0189338 	0.125597 	0 -0.0190106 	0.12571 	0 -0.0190872 	0.125822 	0 -0.0191636 	0.125934 	0 -0.0192399 	0.126045 	0 -0.0193485 	0.126132 	0 -0.0194108 	0.126195 	0 -0.0194728 	0.126257 	0 -0.0195347 	0.126318 	0 -0.0196135 	0.12637 	0 -0.0197421 	0.126395 	0 -0.0197791 	0.126384 	0 -0.0198159 	0.126371 	0 -0.0198527 	0.126358 	0 -0.0199639 	0.126319 	0 -0.0200806 	0.126276 	0 -0.0200911 	0.126178 	0 -0.0201016 	0.12608 	0 -0.0201705 	0.125968 	0 -0.0202759 	0.125847 	0 -0.0203813 	0.125724 	0 -0.020365 	0.125527 	0 -0.0203831 	0.125325 	0 -0.0204785 	0.125114 	0 -0.0205739 	0.124901 	0 -0.0206692 	0.124686 	0 -0.0206283 	0.124373 	0 -0.020716 	0.124059 	0 -0.0208036 	0.123742 	0 -0.0208914 	0.123422 	0 -0.0209792 	0.1231 	0 -0.0209697 	0.122937 	0 -0.0210006 	0.122776 	0 -0.0210315 	0.122614 	0 -0.0210625 	0.122453 	0 -0.0210929 	0.122294 	0 -0.0211316 	0.121969 	0 -0.0211704 	0.121643 	0 -0.0212091 	0.121316 	0 -0.0212479 	0.120988 	0 -0.0213506 	0.120656 	0 -0.0214073 	0.120002 	0 -0.0214642 	0.119344 	0 -0.0215214 	0.118682 	0 -0.0216137 	0.11802 	0 -0.0218279 	0.11736 	0 -0.0218873 	0.116539 	0 -0.0219472 	0.115714 	0 -0.0220093 	0.114885 	0 -0.0222471 	0.114081 	0 -0.0224872 	0.113266 	0 -0.0225595 	0.112255 	0 -0.022633 	0.111239 	0 -0.0228729 	0.11026 	0 -0.0231484 	0.109281 	0 -0.023428 	0.108287 	0 -0.0235283 	0.107061 	0 -0.0237864 	0.105881 	0 -0.0241138 	0.104714 	0 -0.0244453 	0.103535 	0 -0.0247843 	0.102332 	0 -0.0248425 	0.101785 	0 -0.0249902 	0.101275 	0 -0.0251388 	0.100762 	0 -0.0252884 	0.100248 	0 -0.0254254 	0.0997779 	0 -0.0256382 	0.0988244 	0 -0.0258529 	0.0978642 	0 -0.0260694 	0.0968971 	0 -0.0262921 	0.0959253 	0 -0.0266543 	0.0950051 	0 -0.0270652 	0.0932688 	0 -0.0274835 	0.0915124 	0 -0.0279096 	0.089735 	0 -0.0285252 	0.0880529 	0 -0.0292257 	0.0863335 	0 -0.0297612 	0.0842883 	0 -0.0303154 	0.0822213 	0 -0.0311332 	0.0803227 	0 -0.0319692 	0.0783932 	0 -0.0328696 	0.0763275 	0 -0.0331391 	0.0754325 	0 -0.0334621 	0.0745806 	0 -0.0338397 	0.0737723 	0 -0.0342213 	0.0729594 	0 -0.0345423 	0.0722785 	0 -0.0351149 	0.0707117 	0 -0.0356961 	0.0691268 	0 -0.0362861 	0.0675232 	0 -0.0369815 	0.0660196 	0 -0.037804 	0.0644452 	0 -0.0389024 	0.0616819 	0 -0.0400325 	0.0588731 	0 -0.0414164 	0.0563516 	0 -0.0428572 	0.053821 	0 -0.0444684 	0.0510123 	0 -0.0445066 	0.0509238 	0 -0.0445448 	0.0508352 	0 -0.0445849 	0.0507506 	0 -0.0446291 	0.0506739 	0 -0.0446737 	0.0505964 	0 -0.0461537 	0.0473937 	0 -0.0476652 	0.0441477 	0 -0.0492882 	0.0410721 	0 -0.0510539 	0.0382641 	0 -0.052833 	0.0354435 	0 -0.0530156 	0.0350334 	0 -0.0531981 	0.034623 	0 -0.0533988 	0.0342766 	0 -0.0535995 	0.0339303 	0 -0.0538213 	0.033547 	0 -0.0548726 	0.0313692 	0 -0.0559261 	0.0291924 	0 -0.0569803 	0.0270197 	0 -0.0581069 	0.025204 	0 -0.0590163 	0.0237859 	0 -0.0598851 	0.0216544 	0 -0.0607439 	0.0195355 	0 -0.0616428 	0.0178069 	0 -0.0625301 	0.0160813 	0 -0.0633042 	0.0145583 	0 -0.0638042 	0.0127951 	0 -0.0643108 	0.0113374 	0 -0.064805 	0.00987994 	0 -0.0652868 	0.00842356 	0 -0.0657895 	0.00686529 	0 -0.0658731 	0.00619358 	0 -0.0659541 	0.00558208 	0 -0.0660325 	0.00497019 	0 -0.0661083 	0.00435796 	0 -0.066289 	0.00284802 	0 -0.0663437 	0.00230131 	0 -0.0663972 	0.0017554 	0 -0.0664496 	0.00121031 	0 -0.0665008 	0.00066609 	0 -0.0665508 	0.000138604 	0 -0.0664172 	-0.0010871 	0 -0.0662772 	-0.00231229 	0 -0.0661308 	-0.00353653 	0 -0.0661174 	-0.00364374 	0 -0.0660535 	-0.00411704 	0 -0.065988 	-0.0045907 	0 -0.065921 	-0.00506471 	0 -0.0658523 	-0.00553903 	0 -0.0657816 	-0.0060159 	0 -0.0653723 	-0.00719861 	0 -0.0649493 	-0.00835917 	0 -0.0645167 	-0.00952483 	0 -0.0640748 	-0.0106953 	0 -0.0636133 	-0.0118962 	0 -0.0629865 	-0.0131613 	0 -0.062317 	-0.0142907 	0 -0.0616399 	-0.0154274 	0 -0.0609554 	-0.0165711 	0 -0.0602324 	-0.0177729 	0 -0.0593907 	-0.0190113 	0 -0.058542 	-0.0202559 	0 -0.0576812 	-0.0214901 	0 -0.0567858 	-0.0226452 	0 -0.0558157 	-0.023901 	0 -0.055168 	-0.0246826 	0 -0.0545194 	-0.0254677 	0 -0.0538701 	-0.0262563 	0 -0.05322 	-0.0270481 	0 -0.0527824 	-0.0275828 	0 -0.0523163 	-0.0281585 	0 -0.05185 	-0.0287359 	0 -0.0513834 	-0.029315 	0 -0.0509166 	-0.0298957 	0 -0.0504178 	-0.0305178 	0 -0.0492263 	-0.0319117 	0 -0.0480363 	-0.033314 	0 -0.0468492 	-0.0347234 	0 -0.0456579 	-0.0361267 	0 -0.0442007 	-0.0378331 	0 -0.0440943 	-0.0379517 	0 -0.043988 	-0.0380704 	0 -0.0438818 	-0.0381892 	0 -0.0437757 	-0.038308 	0 -0.043673 	-0.0384232 	0 -0.0424413 	-0.0398525 	0 -0.0412246 	-0.0412916 	0 -0.0400244 	-0.0427389 	0 -0.0388416 	-0.0441928 	0 -0.0372822 	-0.0461467 	0 -0.0371996 	-0.0462444 	0 -0.0371172 	-0.0463421 	0 -0.0370348 	-0.0464398 	0 -0.0369526 	-0.0465375 	0 -0.0368718 	-0.0466337 	0 -0.0357527 	-0.0480378 	0 -0.0346392 	-0.0494318 	0 -0.0335383 	-0.0508206 	0 -0.0324559 	-0.0522085 	0 -0.031602 	-0.0533214 	0 -0.0312433 	-0.053833 	0 -0.0308873 	-0.0543441 	0 -0.0305339 	-0.0548548 	0 -0.0301832 	-0.0553651 	0 -0.0297781 	-0.0559581 	0 -0.0292981 	-0.0565908 	0 -0.0288228 	-0.057224 	0 -0.0283523 	-0.0578576 	0 -0.0278866 	-0.0584917 	0 -0.0274514 	-0.0590905 	0 -0.0267502 	-0.0601537 	0 -0.0260619 	-0.0612172 	0 -0.0253699 	-0.0622658 	0 -0.0246616 	-0.0632881 	0 -0.0240121 	-0.0642383 	0 -0.0235626 	-0.064981 	0 -0.0231186 	-0.0657226 	0 -0.0226799 	-0.066463 	0 -0.0222464 	-0.0672023 	0 -0.0216947 	-0.0681531 	0 -0.0215868 	-0.0683175 	0 -0.0214792 	-0.068482 	0 -0.0213719 	-0.0686465 	0 -0.0212649 	-0.0688112 	0 -0.021159 	-0.0689748 	0 -0.0206608 	-0.0697751 	0 -0.0201485 	-0.0705602 	0 -0.0196429 	-0.0713464 	0 -0.0191438 	-0.0721336 	0 -0.0186647 	-0.0728998 	0 -0.0182505 	-0.0736687 	0 -0.0178419 	-0.0744382 	0 -0.017405 	-0.0751802 	0 -0.0169576 	-0.0759092 	0 -0.0165234 	-0.0766245 	0 -0.0161555 	-0.0773396 	0 -0.0157918 	-0.0780545 	0 -0.0154322 	-0.0787693 	0 -0.0150614 	-0.0794707 	0 -0.0146648 	-0.0801327 	0 -0.0143343 	-0.0807927 	0 -0.014007 	-0.0814521 	0 -0.0136829 	-0.082111 	0 -0.0133619 	-0.0827693 	0 -0.0130355 	-0.0834109 	0 -0.0129626 	-0.083558 	0 -0.0128897 	-0.0837051 	0 -0.012817 	-0.083852 	0 -0.0127445 	-0.083999 	0 -0.0126668 	-0.0841567 	0 -0.0124447 	-0.0845326 	0 -0.0122239 	-0.0849098 	0 -0.0120043 	-0.0852882 	0 -0.0117861 	-0.0856678 	0 -0.0115701 	-0.0860468 	0 -0.011327 	-0.0865197 	0 -0.0110551 	-0.0869754 	0 -0.010785 	-0.0874329 	0 -0.0105167 	-0.0878919 	0 -0.0102513 	-0.0883505 	0 -0.0100467 	-0.0887919 	0 -0.00981096 	-0.0892136 	0 -0.00956043 	-0.0896263 	0 -0.00931131 	-0.0900404 	0 -0.00906441 	-0.0904543 	0 -0.0088765 	-0.090852 	0 -0.00868565 	-0.0912481 	0 -0.00845154 	-0.0916156 	0 -0.00821853 	-0.0919842 	0 -0.0079872 	-0.0923529 	0 -0.00781304 	-0.0927065 	0 -0.00763973 	-0.0930609 	0 -0.0074388 	-0.0933965 	0 -0.00721926 	-0.0937196 	0 -0.00700101 	-0.0940429 	0 -0.00683813 	-0.094352 	0 -0.00667591 	-0.0946618 	0 -0.00650561 	-0.094966 	0 -0.0062973 	-0.0952436 	0 -0.00608996 	-0.0955215 	0 -0.00593629 	-0.0957861 	0 -0.00578312 	-0.0960511 	0 -0.00563046 	-0.0963166 	0 -0.00543888 	-0.0965544 	0 -0.0052406 	-0.0967871 	0 -0.00509437 	-0.0970071 	0 -0.00494852 	-0.0972275 	0 -0.00480306 	-0.0974482 	0 -0.00463222 	-0.0976506 	0 -0.00444139 	-0.0978383 	0 -0.00430109 	-0.0980139 	0 -0.00416108 	-0.0981897 	0 -0.00402136 	-0.0983658 	0 -0.00386717 	-0.0985314 	0 -0.00368239 	-0.0986744 	0 -0.00354672 	-0.0988057 	0 -0.00341125 	-0.0989371 	0 -0.00327599 	-0.0990688 	0 -0.00313488 	-0.0991962 	0 -0.0029549 	-0.099295 	0 -0.00282268 	-0.099382 	0 -0.00269059 	-0.0994693 	0 -0.00255864 	-0.0995566 	0 -0.00242682 	-0.0996441 	0 -0.00225108 	-0.0996995 	0 -0.00212124 	-0.0997426 	0 -0.00199148 	-0.0997859 	0 -0.00186178 	-0.0998292 	0 -0.00173216 	-0.0998726 	0 -0.00156379 	-0.0998881 	0 -0.00143531 	-0.0998873 	0 -0.00130685 	-0.0998866 	0 -0.0011784 	-0.099886 	0 -0.00104996 	-0.0998854 	0 -0.000886217 	-0.0998598 	0 -0.000758249 	-0.0998151 	0 -0.000630238 	-0.0997704 	0 -0.000502184 	-0.0997257 	0 -0.000374088 	-0.099681 	0 -0.000212682 	-0.0996133 	0 -8.48016e-05 	-0.0995251 	0 4.31766e-05 	-0.0994369 	0 0.000171253 	-0.0993486 	0 0.000299427 	-0.0992604 	0 0.00046024 	-0.0991505 	0 0.000588257 	-0.0990195 	0 0.000716427 	-0.0988885 	0 0.00084475 	-0.0987574 	0 0.000973227 	-0.0986262 	0 0.00113509 	-0.098474 	0 0.00126361 	-0.0983008 	0 0.00139234 	-0.0981274 	0 0.00152129 	-0.097954 	0 0.00165044 	-0.0977804 	0 0.00181515 	-0.0975859 	0 0.00194469 	-0.0973708 	0 0.00207449 	-0.0971556 	0 0.00220457 	-0.0969402 	0 0.00233492 	-0.0967248 	0 0.00250437 	-0.0964879 	0 0.00263548 	-0.0962315 	0 0.00276694 	-0.0959749 	0 0.00289873 	-0.0957182 	0 0.0030345 	-0.0954594 	0 0.003207 	-0.0951824 	0 0.00334032 	-0.0948851 	0 0.00347405 	-0.0945875 	0 0.00360821 	-0.0942898 	0 0.00375301 	-0.0939874 	0 0.00392759 	-0.0936715 	0 0.00406381 	-0.0933338 	0 0.00420053 	-0.0929958 	0 0.00433776 	-0.0926576 	0 0.00449362 	-0.092312 	0 0.00467111 	-0.0919578 	0 0.004811 	-0.09158 	0 0.00495149 	-0.091202 	0 0.00509259 	-0.0908237 	0 0.0052617 	-0.090436 	0 0.00544299 	-0.0900438 	0 0.00558743 	-0.0896265 	0 0.0057326 	-0.0892088 	0 0.00587849 	-0.0887908 	0 0.00606321 	-0.088362 	0 0.00624936 	-0.0879323 	0 0.00639936 	-0.0874757 	0 0.00655024 	-0.0870188 	0 0.0067143 	-0.0865589 	0 0.00690503 	-0.086093 	0 0.00709724 	-0.085626 	0 0.00725401 	-0.0851306 	0 0.00741182 	-0.0846348 	0 0.00759714 	-0.0841345 	0 0.00779504 	-0.083632 	0 0.00799476 	-0.0831279 	0 0.00815972 	-0.082594 	0 0.00833075 	-0.0820593 	0 0.00853585 	-0.0815209 	0 0.00874257 	-0.080982 	0 0.00895153 	-0.0804411 	0 0.00912642 	-0.0798691 	0 0.00932567 	-0.0792957 	0 0.00954127 	-0.0787213 	0 0.0097588 	-0.0781463 	0 0.00997914 	-0.0775686 	0 0.0101718 	-0.0769589 	0 0.010398 	-0.0763492 	0 0.0106265 	-0.075739 	0 0.0108573 	-0.0751282 	0 0.0110917 	-0.0745138 	0 0.0111707 	-0.0742762 	0 0.0112589 	-0.0740391 	0 0.0113474 	-0.073802 	0 0.0114363 	-0.0735647 	0 0.0115165 	-0.0733517 	0 0.011668 	-0.0728887 	0 0.0118205 	-0.0724245 	0 0.0119741 	-0.0719591 	0 0.0121289 	-0.0714926 	0 0.0123014 	-0.0710368 	0 0.0125505 	-0.0702757 	0 0.0128027 	-0.0695118 	0 0.013058 	-0.0687448 	0 0.0133239 	-0.0679819 	0 0.0136245 	-0.0672363 	0 0.0138954 	-0.0664309 	0 0.0141702 	-0.0656224 	0 0.0144509 	-0.0648127 	0 0.0147697 	-0.0640356 	0 0.0150976 	-0.0632442 	0 0.0153964 	-0.0623931 	0 0.0157003 	-0.0615389 	0 0.0160453 	-0.0607222 	0 0.0163959 	-0.059902 	0 0.0167595 	-0.0590617 	0 0.0170416 	-0.0583045 	0 0.017356 	-0.0575784 	0 0.0176785 	-0.0568539 	0 0.0180059 	-0.056127 	0 0.0182518 	-0.0555877 	0 0.0183299 	-0.0553887 	0 0.0184084 	-0.0551895 	0 0.0184871 	-0.0549899 	0 0.0185679 	-0.0547935 	0 0.0186553 	-0.054606 	0 0.0190514 	-0.0536152 	0 0.0194551 	-0.0526181 	0 0.0198668 	-0.0516146 	0 0.0203068 	-0.0506449 	0 0.0207935 	-0.0496571 	0 0.0212506 	-0.0486023 	0 0.0217189 	-0.0475436 	0 0.0222339 	-0.0465551 	0 0.02276 	-0.045561 	0 0.0233373 	-0.0444868 	0 0.0234435 	-0.044266 	0 0.0235524 	-0.0440497 	0 0.0236673 	-0.0438454 	0 0.0237828 	-0.0436409 	0 0.0238903 	-0.0434511 	0 0.024338 	-0.0425126 	0 0.0247936 	-0.0415688 	0 0.0252574 	-0.0406197 	0 0.0257536 	-0.0397341 	0 0.0263194 	-0.0387686 	0 0.0268167 	-0.0378236 	0 0.027323 	-0.0368754 	0 0.0278678 	-0.0360126 	0 0.0284219 	-0.0351493 	0 0.0288346 	-0.034515 	0 0.0290522 	-0.0341076 	0 0.0292711 	-0.0336995 	0 0.0294946 	-0.0333029 	0 0.0297281 	-0.0329371 	0 0.0299827 	-0.03254 	0 0.03062 	-0.0314331 	0 0.0312676 	-0.0303245 	0 0.0319447 	-0.0292904 	0 0.032644 	-0.0283056 	0 0.0331666 	-0.0275793 	0 0.0334166 	-0.0271402 	0 0.0336675 	-0.026701 	0 0.033928 	-0.0263008 	0 0.0341925 	-0.0259152 	0 0.034497 	-0.0254728 	0 0.0349764 	-0.0247053 	0 0.0354588 	-0.0239396 	0 0.0359464 	-0.0231874 	0 0.0364547 	-0.022526 	0 0.0368938 	-0.0219587 	0 0.0374864 	-0.0209424 	0 0.0380839 	-0.0199474 	0 0.0387044 	-0.0190789 	0 0.0393254 	-0.0182133 	0 0.0400444 	-0.0172155 	0 0.0400869 	-0.0171327 	0 0.0401304 	-0.017056 	0 0.0401748 	-0.0169854 	0 0.0402192 	-0.0169147 	0 0.0402657 	-0.0168407 	0 0.0407294 	-0.0160341 	0 0.0411922 	-0.0152312 	0 0.0416539 	-0.0144323 	0 0.0421222 	-0.0136929 	0 0.042562 	-0.0130809 	0 0.0429482 	-0.012262 	0 0.0433316 	-0.0114463 	0 0.0437199 	-0.0106944 	0 0.0441148 	-0.0100183 	0 0.0444862 	-0.00937983 	0 0.0447487 	-0.00860571 	0 0.0450132 	-0.00788028 	0 0.0452838 	-0.00723742 	0 0.0455512 	-0.00659539 	0 0.0458072 	-0.00597389 	0 0.0459464 	-0.00523393 	0 0.0460947 	-0.0046118 	0 0.0462395 	-0.00398943 	0 0.0463808 	-0.00336695 	0 0.0465164 	-0.00275438 	0 0.0465361 	-0.00208099 	0 0.0465585 	-0.00146965 	0 0.0465773 	-0.000857218 	0 0.0465925 	-0.000243811 	0 0.0466039 	0.000367206 	0 0.0464997 	0.00101929 	0 0.046396 	0.0016284 	0 0.0462886 	0.00223946 	0 0.0461775 	0.00285236 	0 0.0460621 	0.00346935 	0 0.0458333 	0.00414286 	0 0.0456059 	0.00475827 	0 0.0453746 	0.00537656 	0 0.0451395 	0.00599765 	0 0.0448973 	0.00663013 	0 0.0445462 	0.00734013 	0 0.0441952 	0.00799833 	0 0.0438423 	0.00863428 	0 0.0434855 	0.00927415 	0 0.043115 	0.00993574 	0 0.042645 	0.0106617 	0 0.0421712 	0.0113916 	0 0.0416948 	0.0121058 	0 0.0412176 	0.0127785 	0 0.0407134 	0.0134897 	0 0.040137 	0.0142329 	0 0.0395576 	0.0149812 	0 0.0389756 	0.0157342 	0 0.038391 	0.0164918 	0 0.0381006 	0.0168688 	0 0.0380163 	0.0169816 	0 0.0379319 	0.0170946 	0 0.0378476 	0.0172076 	0 0.0377631 	0.0173208 	0 0.0376774 	0.0174358 	0 0.0369563 	0.0183178 	0 0.0362332 	0.0191858 	0 0.035509 	0.0200624 	0 0.0347842 	0.0209471 	0 0.0339552 	0.0219676 	0 0.0334169 	0.0226 	0 0.0328797 	0.0232353 	0 0.032344 	0.0238731 	0 0.0318098 	0.0245133 	0 0.0314247 	0.0249779 	0 0.0310447 	0.0254582 	0 0.0306659 	0.0259398 	0 0.0302883 	0.0264225 	0 0.029912 	0.0269063 	0 0.0294879 	0.0274546 	0 0.02879 	0.0283176 	0 0.0280982 	0.0291824 	0 0.0274131 	0.0300485 	0 0.026735 	0.0309151 	0 0.0262337 	0.0315628 	0 0.0258229 	0.0321231 	0 0.0254152 	0.0326833 	0 0.0250108 	0.0332432 	0 0.0246096 	0.0338028 	0 0.0241263 	0.0344821 	0 0.0236885 	0.035076 	0 0.023255 	0.0356691 	0 0.022826 	0.0362613 	0 0.0224014 	0.0368524 	0 0.0220255 	0.0373803 	0 0.0212687 	0.0385009 	0 0.0205275 	0.0396171 	0 0.0198017 	0.0407282 	0 0.0190887 	0.0418237 	0 0.0184838 	0.0427474 	0 0.0182757 	0.0430853 	0 0.0180689 	0.0434224 	0 0.0178634 	0.0437588 	0 0.0176593 	0.0440945 	0 0.0174221 	0.0444863 	0 0.0170144 	0.0451386 	0 0.016612 	0.0457884 	0 0.016215 	0.0464355 	0 0.015823 	0.04708 	0 0.0154538 	0.0476925 	0 0.0149006 	0.0486616 	0 0.0143558 	0.0496188 	0 0.0138142 	0.0505514 	0 0.0132825 	0.0514776 	0 0.0127843 	0.0523552 	0 0.012295 	0.0532695 	0 0.0118142 	0.0541781 	0 0.0113415 	0.0550811 	0 0.0108712 	0.0559634 	0 0.0104169 	0.0568052 	0 0.00997578 	0.0576728 	0 0.00954147 	0.0585349 	0 0.00911376 	0.0593919 	0 0.00869242 	0.0602436 	0 0.00827903 	0.0610631 	0 0.00801791 	0.061598 	0 0.00775913 	0.0621308 	0 0.00750264 	0.0626615 	0 0.00724838 	0.0631902 	0 0.00688226 	0.0639554 	0 0.00676926 	0.0641891 	0 0.00665669 	0.0644224 	0 0.00654456 	0.0646555 	0 0.00643285 	0.0648882 	0 0.00632182 	0.0651201 	0 0.00594864 	0.0659021 	0 0.00557836 	0.0666779 	0 0.00521264 	0.0674502 	0 0.00485132 	0.068219 	0 0.00449633 	0.06898 	0 0.00415233 	0.0697385 	0 0.00380606 	0.0704854 	0 0.00346361 	0.0712291 	0 0.00312488 	0.0719697 	0 0.00279082 	0.0727049 	0 0.00246947 	0.0734396 	0 0.00214313 	0.0741608 	0 0.00182005 	0.0748791 	0 0.00150014 	0.0755945 	0 0.00118378 	0.0763061 	0 0.000880168 	0.0770181 	0 0.000570674 	0.0777165 	0 0.000263967 	0.0784122 	0 -4.00019e-05 	0.0791054 	0 -0.000341184 	0.0797958 	0 -0.000630915 	0.0804862 	0 -0.000925882 	0.081164 	0 -0.00121856 	0.0818393 	0 -0.00150885 	0.0825122 	0 -0.0017969 	0.0831831 	0 -0.00207524 	0.0838539 	0 -0.00235786 	0.0845131 	0 -0.00263833 	0.0851701 	0 -0.00291669 	0.0858251 	0 -0.00319322 	0.0864785 	0 -0.00346218 	0.0871312 	0 -0.00373379 	0.0877742 	0 -0.0040035 	0.0884152 	0 -0.00427133 	0.0890543 	0 -0.00453764 	0.0896923 	0 -0.00479834 	0.0903282 	0 -0.00506014 	0.0909567 	0 -0.00532023 	0.0915835 	0 -0.00557864 	0.0922084 	0 -0.00583577 	0.0928325 	0 -0.00608884 	0.0934529 	0 -0.00634167 	0.0940688 	0 -0.00659296 	0.0946831 	0 -0.00684275 	0.0952957 	0 -0.00709143 	0.0959076 	0 -0.00709208 	0.0959092 	0 -0.00709272 	0.0959108 	0 -0.00709337 	0.0959124 	0 -0.00709401 	0.095914 	0 -0.00709466 	0.0959156