# vtk DataFile Version 2.0
track0
ASCII
DATASET POLYDATA
POINTS 869 float
1.11022e-18 0.5 1.11022e-18
0.391304 0.5 1.11022e-18
0.391315 0.498 1.11022e-18
0.391314 0.496 1.11022e-18
0.391303 0.494 1.11022e-18
0.391281 0.492 1.11022e-18
0.39125 0.49 1.11022e-18
0.391208 0.488 1.11022e-18
0.391158 0.486 1.11022e-18
0.3911 0.484001 1.11022e-18
0.391034 0.482001 1.11022e-18
0.39096 0.48 1.11022e-18
0.390879 0.478 1.11022e-18
0.390792 0.476 1.11022e-18
0.390698 0.474001 1.11022e-18
0.390598 0.472002 1.11022e-18
0.390493 0.47 1.11022e-18
0.390394 0.468223 1.11022e-18
0.390292 0.466447 1.11022e-18
0.390186 0.464671 1.11022e-18
0.390077 0.462895 1.11022e-18
0.39 0.461683 1.11022e-18
0.389978 0.461346 1.11022e-18
0.389956 0.46101 1.11022e-18
0.389934 0.460673 1.11022e-18
0.389912 0.460337 1.11022e-18
0.38989 0.46 1.11022e-18
0.389758 0.458 1.11022e-18
0.389623 0.456 1.11022e-18
0.389485 0.454001 1.11022e-18
0.389344 0.452001 1.11022e-18
0.389201 0.45 1.11022e-18
0.389055 0.448 1.11022e-18
0.388907 0.446 1.11022e-18
0.388758 0.444 1.11022e-18
0.388608 0.442001 1.11022e-18
0.388455 0.44 1.11022e-18
0.388302 0.438 1.11022e-18
0.388148 0.436 1.11022e-18
0.387993 0.434 1.11022e-18
0.387838 0.432 1.11022e-18
0.387682 0.43 1.11022e-18
0.387525 0.428 1.11022e-18
0.38737 0.426 1.11022e-18
0.387214 0.424 1.11022e-18
0.387059 0.422 1.11022e-18
0.386903 0.42 1.11022e-18
0.386748 0.418 1.11022e-18
0.386594 0.416 1.11022e-18
0.386442 0.414 1.11022e-18
0.38629 0.411999 1.11022e-18
0.386139 0.41 1.11022e-18
0.385988 0.408 1.11022e-18
0.38584 0.406 1.11022e-18
0.385693 0.404 1.11022e-18
0.385548 0.401999 1.11022e-18
0.385404 0.4 1.11022e-18
0.385262 0.398 1.11022e-18
0.385122 0.396 1.11022e-18
0.384984 0.394 1.11022e-18
0.384848 0.391999 1.11022e-18
0.384714 0.39 1.11022e-18
0.384582 0.388 1.11022e-18
0.384452 0.386 1.11022e-18
0.384325 0.383999 1.11022e-18
0.3842 0.381999 1.11022e-18
0.384078 0.38 1.11022e-18
0.383958 0.378 1.11022e-18
0.383841 0.376 1.11022e-18
0.383727 0.373999 1.11022e-18
0.383615 0.371999 1.11022e-18
0.383507 0.37 1.11022e-18
0.3834 0.368 1.11022e-18
0.383297 0.366 1.11022e-18
0.383197 0.364 1.11022e-18
0.3831 0.361999 1.11022e-18
0.383006 0.36 1.11022e-18
0.382915 0.358 1.11022e-18
0.382827 0.356 1.11022e-18
0.382742 0.354 1.11022e-18
0.382661 0.351999 1.11022e-18
0.382583 0.35 1.11022e-18
0.382507 0.348 1.11022e-18
0.382435 0.346 1.11022e-18
0.382367 0.344 1.11022e-18
0.382302 0.341999 1.11022e-18
0.38224 0.34 1.11022e-18
0.382181 0.338 1.11022e-18
0.382125 0.336 1.11022e-18
0.382074 0.334 1.11022e-18
0.382025 0.331999 1.11022e-18
0.38198 0.33 1.11022e-18
0.381938 0.328 1.11022e-18
0.381899 0.326 1.11022e-18
0.381864 0.324 1.11022e-18
0.381833 0.322 1.11022e-18
0.381804 0.32 1.11022e-18
0.38178 0.318 1.11022e-18
0.381758 0.316 1.11022e-18
0.38174 0.314 1.11022e-18
0.381725 0.312 1.11022e-18
0.381714 0.31 1.11022e-18
0.381706 0.308 1.11022e-18
0.381701 0.306 1.11022e-18
0.381699 0.304 1.11022e-18
0.381701 0.302 1.11022e-18
0.381706 0.3 1.11022e-18
0.381715 0.298 1.11022e-18
0.381727 0.296 1.11022e-18
0.381741 0.294 1.11022e-18
0.381759 0.292 1.11022e-18
0.38178 0.29 1.11022e-18
0.381805 0.288 1.11022e-18
0.381833 0.286 1.11022e-18
0.381863 0.284 1.11022e-18
0.381897 0.282 1.11022e-18
0.381933 0.28 1.11022e-18
0.381973 0.278 1.11022e-18
0.382016 0.276 1.11022e-18
0.382061 0.274 1.11022e-18
0.38211 0.272 1.11022e-18
0.382161 0.27 1.11022e-18
0.382215 0.268 1.11022e-18
0.382272 0.266 1.11022e-18
0.382331 0.264 1.11022e-18
0.382393 0.262 1.11022e-18
0.382458 0.26 1.11022e-18
0.382526 0.258 1.11022e-18
0.382596 0.256 1.11022e-18
0.382669 0.254 1.11022e-18
0.382743 0.252 1.11022e-18
0.38282 0.25 1.11022e-18
0.382901 0.248 1.11022e-18
0.382983 0.246 1.11022e-18
0.383067 0.244 1.11022e-18
0.383153 0.242 1.11022e-18
0.383241 0.24 1.11022e-18
0.383332 0.238 1.11022e-18
0.383425 0.236 1.11022e-18
0.383519 0.234 1.11022e-18
0.383615 0.232 1.11022e-18
0.383714 0.23 1.11022e-18
0.383814 0.228 1.11022e-18
0.383916 0.226 1.11022e-18
0.384019 0.224 1.11022e-18
0.384124 0.222 1.11022e-18
0.38423 0.22 1.11022e-18
0.384339 0.218 1.11022e-18
0.384449 0.216 1.11022e-18
0.384559 0.214 1.11022e-18
0.38467 0.212 1.11022e-18
0.384783 0.21 1.11022e-18
0.384899 0.208 1.11022e-18
0.385014 0.206 1.11022e-18
0.38513 0.204 1.11022e-18
0.385246 0.202 1.11022e-18
0.385365 0.2 1.11022e-18
0.385485 0.198 1.11022e-18
0.385604 0.196 1.11022e-18
0.385723 0.194 1.11022e-18
0.385844 0.192 1.11022e-18
0.385965 0.19 1.11022e-18
0.386088 0.188 1.11022e-18
0.38621 0.186 1.11022e-18
0.386331 0.184 1.11022e-18
0.386453 0.182 1.11022e-18
0.386576 0.18 1.11022e-18
0.3867 0.178 1.11022e-18
0.386822 0.176 1.11022e-18
0.386944 0.174 1.11022e-18
0.387065 0.172 1.11022e-18
0.387188 0.17 1.11022e-18
0.387311 0.168 1.11022e-18
0.387431 0.166 1.11022e-18
0.387551 0.164 1.11022e-18
0.387671 0.161999 1.11022e-18
0.387791 0.16 1.11022e-18
0.387911 0.158 1.11022e-18
0.388028 0.156 1.11022e-18
0.388144 0.154 1.11022e-18
0.38826 0.151999 1.11022e-18
0.388376 0.15 1.11022e-18
0.388491 0.148 1.11022e-18
0.388602 0.146 1.11022e-18
0.388713 0.144 1.11022e-18
0.388823 0.141999 1.11022e-18
0.388932 0.14 1.11022e-18
0.389039 0.138 1.11022e-18
0.389144 0.136 1.11022e-18
0.389247 0.134 1.11022e-18
0.389349 0.131999 1.11022e-18
0.389449 0.13 1.11022e-18
0.389548 0.128 1.11022e-18
0.389643 0.126 1.11022e-18
0.389737 0.124 1.11022e-18
0.389828 0.121999 1.11022e-18
0.389917 0.12 1.11022e-18
0.389934 0.11962 1.11022e-18
0.38995 0.11924 1.11022e-18
0.389967 0.11886 1.11022e-18
0.389983 0.11848 1.11022e-18
0.39 0.118077 1.11022e-18
0.390068 0.116461 1.11022e-18
0.390135 0.114846 1.11022e-18
0.390199 0.11323 1.11022e-18
0.390262 0.111615 1.11022e-18
0.390322 0.11 1.11022e-18
0.390395 0.108 1.11022e-18
0.390465 0.106 1.11022e-18
0.390532 0.104 1.11022e-18
0.390595 0.101999 1.11022e-18
0.390654 0.1 1.11022e-18
0.390711 0.098 1.11022e-18
0.390764 0.0959999 1.11022e-18
0.390813 0.0939997 1.11022e-18
0.390858 0.0919994 1.11022e-18
0.390899 0.09 1.11022e-18
0.390937 0.088 1.11022e-18
0.390971 0.0859999 1.11022e-18
0.391 0.0839998 1.11022e-18
0.391025 0.0819996 1.11022e-18
0.391045 0.08 1.11022e-18
0.391062 0.078 1.11022e-18
0.391075 0.076 1.11022e-18
0.391083 0.0739999 1.11022e-18
0.391085 0.0719998 1.11022e-18
0.391082 0.07 1.11022e-18
0.391075 0.068 1.11022e-18
0.391063 0.066 1.11022e-18
0.391046 0.0640001 1.11022e-18
0.391023 0.0620002 1.11022e-18
0.390993 0.06 1.11022e-18
0.390958 0.058 1.11022e-18
0.390917 0.0560001 1.11022e-18
0.390869 0.0540004 1.11022e-18
0.390814 0.0520008 1.11022e-18
0.39075 0.05 1.11022e-18
0.390678 0.048 1.11022e-18
0.390597 0.0460003 1.11022e-18
0.390506 0.0440011 1.11022e-18
0.390404 0.0420025 1.11022e-18
0.390286 0.04 1.11022e-18
0.390229 0.0391441 1.11022e-18
0.390169 0.0382885 1.11022e-18
0.390105 0.0374331 1.11022e-18
0.390038 0.036578 1.11022e-18
0.39 0.0361247 1.11022e-18
0.389895 0.0348998 1.11022e-18
0.38978 0.0336757 1.11022e-18
0.389653 0.0324528 1.11022e-18
0.389514 0.0312312 1.11022e-18
0.389358 0.03 1.11022e-18
0.389075 0.028 1.11022e-18
0.388752 0.0260059 1.11022e-18
0.388369 0.0240227 1.11022e-18
0.387905 0.0220567 1.11022e-18
0.387298 0.02 1.11022e-18
0.386524 0.018 1.11022e-18
0.385659 0.0160377 1.11022e-18
0.384665 0.0141375 1.11022e-18
0.383465 0.0123602 1.11022e-18
0.38128 0.01 1.11022e-18
0.381024 0.00983739 1.11022e-18
0.380767 0.00967704 1.11022e-18
0.380508 0.00951896 1.11022e-18
0.380248 0.0093632 1.11022e-18
0.38 0.00921801 1.11022e-18
0.378 0.0080679 1.11022e-18
0.375997 0.00692358 1.11022e-18
0.37395 0.00585952 1.11022e-18
0.371852 0.0048991 1.11022e-18
0.37 0.00417979 1.11022e-18
0.368 0.00352506 1.11022e-18
0.366 0.00287033 1.11022e-18
0.364 0.0022156 1.11022e-18
0.362 0.00156087 1.11022e-18
0.36 0.00090614 1.11022e-18
0.35921 0.000724912 1.11022e-18
0.35842 0.000543684 1.11022e-18
0.35763 0.000362456 1.11022e-18
0.35684 0.000181228 1.11022e-18
0.35605 0 1.11022e-18
1.11022e-18 0.5 1.11022e-18
0.391304 0.5 1.11022e-18
0.391304 0.5 1.11022e-18
0.391304 0.5 1.11022e-18
0.391304 0.5 1.11022e-18
0.391304 0.5 1.11022e-18
0.391304 0.5 1.11022e-18
0.391294 0.502 1.11022e-18
0.391271 0.504 1.11022e-18
0.391236 0.506 1.11022e-18
0.391188 0.507999 1.11022e-18
0.391126 0.51 1.11022e-18
0.39105 0.512 1.11022e-18
0.390958 0.513999 1.11022e-18
0.390851 0.515998 1.11022e-18
0.390728 0.517996 1.11022e-18
0.390586 0.52 1.11022e-18
0.390469 0.521468 1.11022e-18
0.390342 0.522935 1.11022e-18
0.390204 0.524402 1.11022e-18
0.390055 0.525867 1.11022e-18
0.39 0.526371 1.11022e-18
0.389919 0.527097 1.11022e-18
0.389834 0.527822 1.11022e-18
0.389747 0.528547 1.11022e-18
0.389656 0.529272 1.11022e-18
0.389562 0.53 1.11022e-18
0.389295 0.532 1.11022e-18
0.389003 0.533997 1.11022e-18
0.388685 0.535989 1.11022e-18
0.388341 0.537978 1.11022e-18
0.38796 0.54 1.11022e-18
0.387552 0.542 1.11022e-18
0.387113 0.543993 1.11022e-18
0.386642 0.54598 1.11022e-18
0.386136 0.547957 1.11022e-18
0.385574 0.55 1.11022e-18
0.384981 0.552 1.11022e-18
0.38435 0.553988 1.11022e-18
0.383678 0.555963 1.11022e-18
0.382963 0.557923 1.11022e-18
0.382152 0.56 1.11022e-18
0.381722 0.561025 1.11022e-18
0.381279 0.562044 1.11022e-18
0.380823 0.563058 1.11022e-18
0.380354 0.564065 1.11022e-18
0.38 0.564801 1.11022e-18
0.379487 0.565841 1.11022e-18
0.378958 0.566873 1.11022e-18
0.378414 0.567897 1.11022e-18
0.377854 0.568912 1.11022e-18
0.377231 0.57 1.11022e-18
0.376039 0.572 1.11022e-18
0.374787 0.573963 1.11022e-18
0.373473 0.575885 1.11022e-18
0.372098 0.577763 1.11022e-18
0.370342 0.58 1.11022e-18
0.370273 0.58008 1.11022e-18
0.370205 0.58016 1.11022e-18
0.370136 0.58024 1.11022e-18
0.370068 0.580319 1.11022e-18
0.37 0.580397 1.11022e-18
0.368335 0.582318 1.11022e-18
0.366602 0.584178 1.11022e-18
0.364804 0.585974 1.11022e-18
0.362942 0.587705 1.11022e-18
0.360287 0.59 1.11022e-18
0.36023 0.590045 1.11022e-18
0.360172 0.59009 1.11022e-18
0.360115 0.590135 1.11022e-18
0.360057 0.590179 1.11022e-18
0.36 0.590224 1.11022e-18
0.358 0.591775 1.11022e-18
0.355952 0.593261 1.11022e-18
[...]
POINT_DATA 869
 FIELD attributes 1
U 3 869 float
-8.29009e-20 	-1.2448e-18 	0
-6.95119e-05 	0.0130326 	0 4.99986e-06 	0.013283 	0 7.81473e-05 	0.0135345 	0 0.000150003 	0.0137869 	0 0.000220635 	0.0140403 	0 0.000294781 	0.0142819 	0 0.000363666 	0.0145458 	0 0.000431468 	0.0148106 	0 0.000498245 	0.0150762 	0 0.000564048 	0.0153425 	0 0.000632601 	0.0155996 	0 0.000695723 	0.0158768 	0 0.000758006 	0.0161548 	0 0.000819493 	0.0164334 	0 0.000880222 	0.0167126 	0 0.000942152 	0.0169873 	0 0.000992789 	0.0172451 	0 0.00104293 	0.0175033 	0 0.0010926 	0.017762 	0 0.00114181 	0.018021 	0 0.0011751 	0.0181981 	0 0.00118396 	0.0182472 	0 0.00119281 	0.0182964 	0 0.00120164 	0.0183456 	0 0.00121045 	0.0183948 	0 0.00121925 	0.018444 	0 0.00126715 	0.0187474 	0 0.00131504 	0.01905 	0 0.0013625 	0.0193529 	0 0.00140954 	0.0196561 	0 0.00145622 	0.01996 	0 0.00149414 	0.0202833 	0 0.00153493 	0.0205972 	0 0.00157546 	0.0209114 	0 0.00161573 	0.0212258 	0 0.00165579 	0.0215406 	0 0.00168333 	0.0218842 	0 0.00171645 	0.0222087 	0 0.00174945 	0.0225333 	0 0.00178234 	0.022858 	0 0.00181513 	0.0231828 	0 0.00183371 	0.0235406 	0 0.00185695 	0.0238807 	0 0.00188179 	0.0242146 	0 0.00190666 	0.0245486 	0 0.00193153 	0.0248825 	0 0.00194178 	0.0252493 	0 0.00195401 	0.0256081 	0 0.00197013 	0.0259502 	0 0.00198637 	0.0262922 	0 0.00200272 	0.0266339 	0 0.00200426 	0.0270084 	0 0.00200612 	0.0273826 	0 0.00201257 	0.0277337 	0 0.00201965 	0.0280824 	0 0.00202695 	0.0284306 	0 0.00201945 	0.0288112 	0 0.00201235 	0.0291914 	0 0.00200766 	0.0295577 	0 0.00200512 	0.0299115 	0 0.00200288 	0.0302648 	0 0.00198615 	0.0306497 	0 0.00196989 	0.031034 	0 0.00195457 	0.0314134 	0 0.00194205 	0.0317708 	0 0.0019299 	0.0321274 	0 0.00190391 	0.0325146 	0 0.00187844 	0.0329013 	0 0.00185345 	0.0332873 	0 0.00183048 	0.0336502 	0 0.00180821 	0.0340084 	0 0.0017731 	0.034396 	0 0.00173854 	0.0347829 	0 0.00170451 	0.035169 	0 0.00167132 	0.0355391 	0 0.00163889 	0.035897 	0 0.00159498 	0.0362827 	0 0.00155166 	0.0366676 	0 0.00150889 	0.0370517 	0 0.00146639 	0.0374258 	0 0.00142393 	0.0377815 	0 0.00137179 	0.038163 	0 0.00132023 	0.0385436 	0 0.00126926 	0.0389234 	0 0.00121848 	0.0392981 	0 0.00116634 	0.0396495 	0 0.00110672 	0.0400244 	0 0.0010477 	0.0403984 	0 0.000989255 	0.0407714 	0 0.000931325 	0.0411432 	0 0.000870055 	0.041488 	0 0.000803954 	0.0418539 	0 0.000738442 	0.0422187 	0 0.000673504 	0.0425826 	0 0.000609125 	0.0429455 	0 0.000539983 	0.0432837 	0 0.000468595 	0.043638 	0 0.000397777 	0.0439912 	0 0.000327517 	0.0443434 	0 0.000257801 	0.0446946 	0 0.000181844 	0.0450229 	0 0.000106565 	0.045363 	0 3.18294e-05 	0.0457019 	0 -4.23758e-05 	0.0460399 	0 -0.000116061 	0.0463767 	0 -0.00019787 	0.0466917 	0 -0.000275444 	0.0470148 	0 -0.000352512 	0.0473368 	0 -0.000429085 	0.0476577 	0 -0.000505173 	0.0479776 	0 -0.000591955 	0.0482757 	0 -0.000670027 	0.0485789 	0 -0.00074764 	0.0488812 	0 -0.000824803 	0.0491824 	0 -0.000901524 	0.0494826 	0 -0.00099252 	0.0497603 	0 -0.00106908 	0.0500407 	0 -0.00114523 	0.0503201 	0 -0.00122099 	0.0505985 	0 -0.00129735 	0.0508748 	0 -0.00139092 	0.0511299 	0 -0.00146384 	0.0513844 	0 -0.00153642 	0.051638 	0 -0.00160866 	0.0518906 	0 -0.00168473 	0.0521385 	0 -0.00177825 	0.0523694 	0 -0.00184531 	0.052595 	0 -0.00191209 	0.0528198 	0 -0.0019786 	0.0530437 	0 -0.00205398 	0.0532602 	0 -0.00214552 	0.0534638 	0 -0.00220437 	0.0536572 	0 -0.00226302 	0.0538499 	0 -0.00232146 	0.0540418 	0 -0.00239596 	0.0542235 	0 -0.00248342 	0.0543967 	0 -0.00253176 	0.0545545 	0 -0.00257994 	0.0547116 	0 -0.00262799 	0.0548682 	0 -0.00270174 	0.0550122 	0 -0.00278301 	0.0551516 	0 -0.00281857 	0.0552704 	0 -0.00285404 	0.0553887 	0 -0.00288978 	0.0555064 	0 -0.00296296 	0.0556099 	0 -0.003036 	0.0557124 	0 -0.00305661 	0.0557883 	0 -0.00307718 	0.055864 	0 -0.00310898 	0.0559363 	0 -0.00317203 	0.0559995 	0 -0.003235 	0.0560617 	0 -0.00323862 	0.0560909 	0 -0.00324223 	0.05612 	0 -0.00327128 	0.056144 	0 -0.00332252 	0.0561633 	0 -0.00337372 	0.0561819 	0 -0.00335849 	0.05616 	0 -0.00334327 	0.0561383 	0 -0.00337119 	0.0561115 	0 -0.00340902 	0.0560831 	0 -0.00344686 	0.0560541 	0 -0.00341119 	0.0559766 	0 -0.00338132 	0.0558994 	0 -0.0034043 	0.0558197 	0 -0.00342731 	0.0557396 	0 -0.00345035 	0.055659 	0 -0.00339301 	0.0555214 	0 -0.00336059 	0.0553849 	0 -0.00336761 	0.0552492 	0 -0.00337466 	0.0551133 	0 -0.00338175 	0.0549771 	0 -0.00330196 	0.0547745 	0 -0.0032695 	0.0545765 	0 -0.00325982 	0.0543807 	0 -0.00325015 	0.0541848 	0 -0.00324049 	0.0539889 	0 -0.00313814 	0.0537162 	0 -0.00310838 	0.0534553 	0 -0.00308174 	0.0531952 	0 -0.00305504 	0.0529352 	0 -0.00302829 	0.0526755 	0 -0.00292318 	0.0523322 	0 -0.00288011 	0.0520035 	0 -0.00283688 	0.0516751 	0 -0.00279348 	0.0513472 	0 -0.00274993 	0.0510198 	0 -0.00264863 	0.0506055 	0 -0.00259022 	0.0502048 	0 -0.00253149 	0.0498046 	0 -0.00247243 	0.049405 	0 -0.00241307 	0.0490062 	0 -0.00231863 	0.0485211 	0 -0.00224686 	0.0480454 	0 -0.00217457 	0.0475705 	0 -0.00210173 	0.0470963 	0 -0.00202838 	0.0466232 	0 -0.00200932 	0.0465165 	0 -0.00199382 	0.0464114 	0 -0.0019783 	0.0463063 	0 -0.00196276 	0.0462012 	0 -0.00194621 	0.0460897 	0 -0.00187565 	0.0456395 	0 -0.00180467 	0.0451901 	0 -0.00173323 	0.0447414 	0 -0.00166133 	0.0442936 	0 -0.00160178 	0.0438532 	0 -0.00150898 	0.0432176 	0 -0.00141529 	0.0425833 	0 -0.00132066 	0.0419503 	0 -0.00122506 	0.0413187 	0 -0.0011546 	0.0407047 	0 -0.00106068 	0.0399926 	0 -0.000965592 	0.0392818 	0 -0.000869268 	0.0385725 	0 -0.000771645 	0.0378646 	0 -0.000708026 	0.0371844 	0 -0.000618419 	0.036398 	0 -0.000527351 	0.0356129 	0 -0.000434725 	0.0348293 	0 -0.000340441 	0.0340472 	0 -0.00028362 	0.0333018 	0 -0.000203544 	0.0324456 	0 -0.000121701 	0.0315908 	0 -3.79532e-05 	0.0307375 	0 4.78548e-05 	0.0298858 	0 9.9005e-05 	0.0290766 	0 0.000165859 	0.028159 	0 0.000234837 	0.0272428 	0 0.000306147 	0.026328 	0 0.000380026 	0.0254149 	0 0.000428578 	0.0245448 	0 0.00048209 	0.0235795 	0 0.000538319 	0.0226155 	0 0.000597604 	0.0216532 	0 0.000660344 	0.0206927 	0 0.000712697 	0.0197673 	0 0.00075916 	0.0187767 	0 0.000809771 	0.0177878 	0 0.000865208 	0.0168011 	0 0.000926299 	0.0158168 	0 0.00099308 	0.0148467 	0 0.00101705 	0.0144292 	0 0.00104249 	0.0140122 	0 0.00106953 	0.0135958 	0 0.0010983 	0.01318 	0 0.00111457 	0.0129599 	0 0.00116237 	0.0123596 	0 0.00121507 	0.0117605 	0 0.00127339 	0.0111628 	0 0.00133823 	0.0105669 	0 0.00141132 	0.00996752 	0 0.00146272 	0.00904873 	0 0.0015766 	0.00815863 	0 0.00171677 	0.00727601 	0 0.0018918 	0.00640465 	0 0.00212741 	0.00549825 	0 0.00210222 	0.00476911 	0 0.00212292 	0.00405819 	0 0.00228987 	0.00339144 	0 0.00257483 	0.00278167 	0 0.00311787 	0.00198015 	0 0.00313269 	0.00195123 	0 0.00314868 	0.00192278 	0 0.00316585 	0.0018948 	0 0.00318422 	0.0018673 	0 0.00320273 	0.00184175 	0 0.00282336 	0.00161274 	0 0.00268179 	0.00139399 	0 0.00260505 	0.0011927 	0 0.00261031 	0.0010139 	0 0.00269794 	0.000883209 	0 0.00227533 	0.000744862 	0 0.00185272 	0.000606514 	0 0.00143011 	0.000468167 	0 0.0010075 	0.000329819 	0 0.000869553 	0.000199459 	0 0.000695642 	0.000159567 	0 0.000521732 	0.000119675 	0 0.000347821 	7.97835e-05 	0 0.000173911 	3.98918e-05 	0 0 	0 	0
-8.29009e-20 	-1.2448e-18 	0
-6.95119e-05 	0.0130326 	0 -6.95119e-05 	0.0130326 	0 -6.95119e-05 	0.0130326 	0 -6.95119e-05 	0.0130326 	0 -6.95119e-05 	0.0130326 	0 -6.95119e-05 	0.0130326 	0 -0.000146773 	0.0128027 	0 -0.000220673 	0.0125613 	0 -0.00029598 	0.012321 	0 -0.000372774 	0.0120818 	0 -0.000451208 	0.0118436 	0 -0.000531799 	0.0116239 	0 -0.000610091 	0.0113953 	0 -0.000690103 	0.011168 	0 -0.000771928 	0.010942 	0 -0.000856003 	0.0107165 	0 -0.000917432 	0.0105617 	0 -0.00097796 	0.0104029 	0 -0.00103959 	0.0102448 	0 -0.00110237 	0.0100875 	0 -0.00112439 	0.0100337 	0 -0.00115727 	0.00995628 	0 -0.00119049 	0.00987911 	0 -0.00122407 	0.00980219 	0 -0.00125801 	0.00972552 	0 -0.00129081 	0.00964545 	0 -0.00137973 	0.00944004 	0 -0.00147136 	0.00923639 	0 -0.00156588 	0.00903466 	0 -0.00166343 	0.00883499 	0 -0.00175883 	0.00861926 	0 -0.00185498 	0.00842559 	0 -0.00195446 	0.00823418 	0 -0.00205742 	0.00804521 	0 -0.00215794 	0.00784681 	0 -0.0022638 	0.00763905 	0 -0.00236869 	0.00745681 	0 -0.0024776 	0.00727752 	0 -0.00258357 	0.00708711 	0 -0.00269265 	0.00689767 	0 -0.002814 	0.00669888 	0 -0.00287326 	0.00661127 	0 -0.00293151 	0.00652014 	0 -0.00298895 	0.00642587 	0 -0.00304767 	0.00633266 	0 -0.0030918 	0.00626494 	0 -0.00315989 	0.00616988 	0 -0.00322963 	0.00607614 	0 -0.00330104 	0.00598378 	0 -0.0033707 	0.00588749 	0 -0.00344601 	0.00578211 	0 -0.00357703 	0.0056058 	0 -0.00371461 	0.00543501 	0 -0.003851 	0.00525851 	0 -0.00399136 	0.00508419 	0 -0.00417095 	0.00487924 	0 -0.00417714 	0.00487268 	0 -0.00418334 	0.00486613 	0 -0.00418917 	0.00485911 	0 -0.00419485 	0.0048519 	0 -0.00420045 	0.00484482 	0 -0.00435157 	0.00467164 	0 -0.00451111 	0.00450607 	0 -0.00467445 	0.0043441 	0 -0.00483653 	0.00418132 	0 -0.0050712 	0.00396802 	0 -0.00507565 	0.00396427 	0 -0.0050801 	0.00396052 	0 -0.00508446 	0.00395671 	0 -0.0050884 	0.00395261 	0 -0.00509233 	0.00394855 	0 -0.00524617 	0.0038064 	0 -0.005408 	0.00367156 	0 -0.00557318 	0.00354189 	0 -0.00573169 	0.00341255 	0 -0.00586272 	0.00331574 	0 -0.00595078 	0.00325928 	0 -0.00603876 	0.00320394 	0 -0.0061213 	0.00314814 	0 -0.00620531 	0.00309385 	0 -0.00631302 	0.00302726 	0 -0.00637362 	0.00298826 	0 -0.00643523 	0.00295008 	0 -0.00649782 	0.0029127 	0 -0.00655481 	0.00287491 	0 -0.00660638 	0.00283861 	0 -0.00674516 	0.00275378 	0 -0.00688879 	0.00267277 	0 -0.0070324 	0.00259518 	0 -0.00716179 	0.00252004 	0 -0.00728615 	0.00245306 	0 -0.00743551 	0.00238068 	0 -0.00757836 	0.00231216 	0 -0.00771358 	0.00224732 	0 -0.00785221 	0.00218512 	0 -0.00798799 	0.00212801 	0 -0.00804625 	0.00210407 	0 -0.00809776 	0.00208202 	0 -0.0081493 	0.00206036 	0 -0.00820125 	0.00203901 	0 -0.00826257 	0.00201435 	0 -0.0083325 	0.00198334 	0 -0.00840369 	0.00195294 	0 -0.00847614 	0.00192314 	0 -0.0085498 	0.00189393 	0 -0.008603 	0.0018677 	0 -0.00871543 	0.00181815 	0 -0.00883114 	0.00177006 	0 -0.00895002 	0.00172337 	0 -0.00905662 	0.00168072 	0 -0.00914615 	0.00164308 	0 -0.0092607 	0.00159666 	0 -0.00937823 	0.00155147 	0 -0.00949217 	0.00150912 	0 -0.00958377 	0.00147429 	0 -0.00967655 	0.00144068 	0 -0.00979054 	0.00139624 	0 -0.00990725 	0.00135282 	0 -0.0100016 	0.00131917 	0 -0.0100939 	0.00128768 	0 -0.0101875 	0.00125712 	0 -0.0102983 	0.00121371 	0 -0.0104003 	0.00117639 	0 -0.0104892 	0.00114678 	0 -0.01058 	0.00111773 	0 -0.010672 	0.00108937 	0 -0.010777 	0.00104628 	0 -0.0108626 	0.00101681 	0 -0.0109479 	0.000989019 	0 -0.0110348 	0.000961662 	0 -0.011123 	0.000934838 	0 -0.0112129 	0.000896782 	0 -0.0112909 	0.000869844 	0 -0.0113704 	0.000843258 	0 -0.0114514 	0.000817017 	0 -0.0115336 	0.000791184 	0 -0.011607 	0.000759529 	0 -0.0116764 	0.000733731 	0 -0.0117471 	0.000708201 	0 -0.0118192 	0.000682932 	0 -0.0118971 	0.000656392 	0 -0.0119026 	0.000653701 	0 -0.0119078 	0.000651441 	0 -0.011913 	0.000649183 	0 -0.0119183 	0.000646927 	0 -0.0119237 	0.000644578 	0 -0.011961 	0.000621255 	0 -0.0120001 	0.000598091 	0 -0.0120409 	0.000575085 	0 -0.0120833 	0.000552236 	0 -0.0121208 	0.000532691 	0 -0.0121527 	0.00050695 	0 -0.0121867 	0.000481364 	0 -0.0122227 	0.000455931 	0 -0.0122607 	0.000430649 	0 -0.0122909 	0.000411826 	0 -0.0123138 	0.000385941 	0 -0.0123387 	0.000360174 	0 -0.0123656 	0.000334524 	0 -0.0123946 	0.000308991 	0 -0.0124158 	0.000292546 	0 -0.0124288 	0.000266462 	0 -0.0124439 	0.00024046 	0 -0.0124609 	0.000214541 	0 -0.01248 	0.000188704 	0 -0.0124943 	0.000173923 	0 -0.0124967 	0.000147558 	0 -0.0125013 	0.000121241 	0 -0.0125079 	9.49726e-05 	0 -0.0125165 	6.87525e-05 	0 -0.0125247 	5.47666e-05 	0 -0.0125162 	2.80075e-05 	0 -0.0125097 	1.26145e-06 	0 -0.0125054 	-2.54714e-05 	0 -0.0125031 	-5.2191e-05 	0 -0.0125056 	-6.63844e-05 	0 -0.0124858 	-9.36286e-05 	0 -0.0124681 	-0.000120897 	0 -0.0124525 	-0.00014819 	0 -0.0124391 	-0.000175507 	0 -0.0124352 	-0.000190993 	0 -0.0124041 	-0.000218779 	0 -0.0123751 	-0.00024663 	0 -0.0123483 	-0.000274546 	0 -0.0123238 	-0.000302528 	0 -0.0123119 	-0.00032044 	0 -0.0122696 	-0.00034884 	0 -0.0122295 	-0.00037735 	0 -0.0121918 	-0.000405972 	0 -0.0121563 	-0.000434706 	0 -0.0121338 	-0.000456226 	0 -0.0120807 	-0.000485365 	0 -0.01203 	-0.000514668 	0 -0.0119817 	-0.000544137 	0 -0.0119358 	-0.000573771 	0 -0.0118989 	-0.000600117 	0 -0.0118487 	-0.000623975 	0 -0.0118002 	-0.000647974 	0 -0.0117532 	-0.000672117 	0 -0.0117078 	-0.000696404 	0 -0.0116805 	-0.000711618 	0 -0.0116595 	-0.000720699 	0 -0.0116387 	-0.000729811 	0 -0.0116179 	-0.000738955 	0 -0.0115973 	-0.000748129 	0 -0.0115768 	-0.00075734 	0 -0.0114767 	-0.000794067 	0 -0.0113807 	-0.000829588 	0 -0.0112864 	-0.000865669 	0 -0.0111938 	-0.000902324 	0 -0.0111028 	-0.000939668 	0 -0.0109787 	-0.000986956 	0 -0.0108707 	-0.00102613 	0 -0.0107646 	-0.00106607 	0 -0.0106605 	-0.00110679 	0 -0.010558 	-0.00114852 	0 -0.0104064 	-0.00120808 	0 -0.010287 	-0.00125289 	0 -0.0101709 	-0.00129823 	0 -0.0100571 	-0.00134465 	0 -0.00994492 	-0.00139256 	0 -0.00978247 	-0.00145655 	0 -0.00963041 	-0.00151908 	0 -0.00950638 	-0.00157202 	0 -0.00938517 	-0.0016265 	0 -0.00926538 	-0.00168327 	0 -0.00909517 	-0.00175395 	0 -0.00892922 	-0.00182682 	0 -0.0087718 	-0.00190045 	0 -0.00864586 	-0.00196634 	0 -0.00852083 	-0.00203598 	0 -0.00834652 	-0.00211661 	0 -0.00817735 	-0.00220025 	0 -0.00801359 	-0.00228701 	0 -0.00785554 	-0.00237704 	0 -0.00771079 	-0.00247021 	0 -0.00767685 	-0.0024888 	0 -0.00764316 	-0.00250755 	0 -0.00760971 	-0.00252645 	0 -0.0075765 	-0.00254551 	0 -0.00754699 	-0.00256272 	0 -0.00737334 	-0.0026555 	0 -0.00720302 	-0.00275233 	0 -0.00703627 	-0.00285338 	0 -0.00687333 	-0.00295882 	0 -0.0067028 	-0.0030769 	0 -0.00647083 	-0.00321817 	0 -0.00624734 	-0.00336792 	0 -0.00603306 	-0.00352648 	0 -0.00583722 	-0.00369276 	0 -0.00561906 	-0.00389932 	0 -0.00557302 	-0.00393797 	0 -0.00552753 	-0.00397714 	0 -0.00548261 	-0.00401683 	0 -0.00543825 	-0.00405704 	0 -0.00539957 	-0.00409303 	0 -0.00519571 	-0.00426462 	0 -0.00500049 	-0.00444565 	0 -0.00481437 	-0.00463602 	0 -0.00463774 	-0.00483553 	0 -0.00440943 	-0.00512054 	0 -0.00435045 	-0.00518798 	0 -0.00429277 	-0.00525663 	0 -0.00423637 	-0.00532648 	0 -0.00418126 	-0.0053975 	0 -0.00413309 	-0.0054621 	0 -0.00392855 	-0.00570378 	0 -0.00373854 	-0.00595839 	0 -0.00356282 	-0.00622494 	0 -0.00340438 	-0.00650745 	0 -0.00330002 	-0.00672579 	0 -0.00326381 	-0.00679649 	0 -0.00322834 	-0.00686773 	0 -0.0031936 	-0.0069395 	0 -0.00315958 	-0.00701178 	0 -0.0031202 	-0.00709781 	0 -0.00304215 	-0.00723876 	0 -0.00296766 	-0.00738422 	0 -0.00289661 	-0.00753398 	0 -0.00282888 	-0.00768785 	0 -0.00276847 	-0.00783554 	0 -0.00267509 	-0.00801613 	0 -0.00258693 	-0.00820276 	0 -0.0025089 	-0.00842153 	0 -0.00243707 	-0.00865288 	0 -0.00237355 	-0.00887744 	0 -0.00230346 	-0.00907533 	0 -0.00223725 	-0.00927794 	0 -0.00217471 	-0.00948495 	0 -0.00211562 	-0.00969609 	0 -0.00206862 	-0.00994166 	0 -0.00202983 	-0.010098 	0 -0.00199259 	-0.0102564 	0 -0.00195685 	-0.0104167 	0 -0.00192252 	-0.0105788 	0 -0.00187783 	-0.0108009 	0 -0.00187104 	-0.0108332 	0 -0.0018643 	-0.0108657 	0 -0.00185763 	-0.0108985 	0 -0.00185101 	-0.0109314 	0 -0.00184447 	-0.0109644 	0 -0.00181255 	-0.0110909 	0 -0.00178341 	-0.0112412 	0 -0.00175548 	-0.0113958 	0 -0.00172872 	-0.0115547 	0 -0.00170327 	-0.0117165 	0 -0.00167068 	-0.011785 	0 -0.00164575 	-0.0119361 	0 -0.001623 	-0.0121048 	0 -0.00160125 	-0.0122773 	0 -0.00158058 	-0.0124528 	0 -0.00155189 	-0.0125313 	0 -0.00152481 	-0.012622 	0 -0.00150643 	-0.0128054 	0 -0.00148892 	-0.0129924 	0 -0.0014723 	-0.0131822 	0 -0.00144685 	-0.0132713 	0 -0.00142213 	-0.0133633 	0 -0.00140232 	-0.0135049 	0 -0.00138841 	-0.0137072 	0 -0.00137527 	-0.0139121 	0 -0.00135255 	-0.0140121 	0 -0.00133049 	-0.014115 	0 -0.00130907 	-0.0142208 	0 -0.00129721 	-0.0144276 	0 -0.00128704 	-0.0146484 	0 -0.00126665 	-0.0147598 	0 -0.00124686 	-0.014874 	0 -0.00122766 	-0.014991 	0 -0.00121339 	-0.0151588 	0 -0.00120575 	-0.0153961 	0 -0.00118737 	-0.0155193 	0 -0.00116954 	-0.0156452 	0 -0.00115226 	-0.0157737 	0 -0.00113552 	-0.015905 	0 -0.00113 	-0.0161593 	0 -0.00111337 	-0.0162946 	0 -0.00109725 	-0.0164324 	0 -0.00108163 	-0.0165728 	0 -0.00106649 	-0.0167156 	0 -0.00105874 	-0.0169413 	0 -0.00104363 	-0.0170888 	0 -0.001029 	-0.0172389 	0 -0.00101481 	-0.0173913 	0 -0.00100108 	-0.0175461 	0 -0.000991193 	-0.0177447 	0 -0.000977399 	-0.0179046 	0 -0.00096404 	-0.0180668 	0 -0.000951102 	-0.0182314 	0 -0.000938572 	-0.0183982 	0 -0.000926781 	-0.0185715 	0 -0.000925261 	-0.0185921 	0 -0.000923747 	-0.0186128 	0 -0.000922239 	-0.0186335 	0 -0.000920736 	-0.0186542 	0 -0.000919198 	-0.0186755 	0 -0.000915466 	-0.0187438 	0 -0.000911796 	-0.0188133 	0 -0.000908189 	-0.0188842 	0 -0.000904643 	-0.0189564 	0 -0.000901159 	-0.0190298 	0 -0.000895596 	-0.0190494 	0 -0.000891064 	-0.0191303 	0 -0.000886615 	-0.019213 	0 -0.00088225 	-0.0192976 	0 -0.000877969 	-0.019384 	0 -0.000871225 	-0.0193377 	0 -0.000866272 	-0.019421 	0 -0.000861407 	-0.0195064 	0 -0.000856629 	-0.0195937 	0 -0.000851939 	-0.0196831 	0 -0.000844331 	-0.0195711 	0 -0.000838856 	-0.0196566 	0 -0.000833474 	-0.0197443 	0 -0.000828184 	-0.0198343 	0 -0.000822986 	-0.0199264 	0 -0.000814904 	-0.0197496 	0 -0.000808807 	-0.0198369 	0 -0.000802809 	-0.0199267 	0 -0.000796908 	-0.0200191 	0 -0.000791105 	-0.0201138 	0 -0.000783157 	-0.0199118 	0 -0.000776204 	-0.0199631 	0 -0.000769491 	-0.0200547 	0 -0.000762882 	-0.0201491 	0 -0.000756377 	-0.0202462 	0 -0.000748783 	-0.0200429 	0 -0.000741185 	-0.0200371 	0 -0.000733661 	-0.02013 	0 -0.000726247 	-0.0202261 	0 -0.000718943 	-0.0203252 	0 -0.000711753 	-0.0201219 	0 -0.000703936 	-0.0200614 	0 -0.000695505 	-0.0201551 	0 -0.000687192 	-0.0202524 	0 -0.000678995 	-0.0203532 	0 -0.000672259 	-0.0201512 	0 -0.000664686 	-0.0200395 	0 -0.000655257 	-0.0201336 	0 -0.000645952 	-0.0202315 	0 -0.000636771 	-0.0203334 	0 -0.000630536 	-0.0201343 	0 -0.000623699 	-0.0199761 	0 -0.000613183 	-0.0200698 	0 -0.000602797 	-0.0201678 	0 -0.000592541 	-0.0202703 	0 -0.000586851 	-0.0200757 	0 -0.00058116 	-0.019881 	0 -0.000569564 	-0.0199693 	0 -0.000558012 	-0.0200668 	0 -0.000546595 	-0.0201693 	0 -0.000541487 	-0.0199808 	0 -0.000536379 	-0.0197923 	0 -0.0005247 	-0.0198394 	0 -0.000511901 	-0.0199356 	0 -0.000499241 	-0.0200373 	0 -0.000494745 	-0.0198569 	0 -0.000490249 	-0.0196764 	0 -0.000478851 	-0.0196875 	0 -0.000464727 	-0.0197815 	0 -0.000450746 	-0.0198818 	0 -0.000446881 	-0.0197113 	0 -0.000443016 	-0.0195408 	0 -0.000432233 	-0.019522 	0 -0.000416714 	-0.0196129 	0 -0.000401337 	-0.0197108 	0 -0.00039811 	-0.0195524 	0 -0.000394883 	-0.0193939 	0 -0.000385005 	-0.0193517 	0 -0.000368024 	-0.0194386 	0 -0.000351182 	-0.0195333 	0 -0.000348586 	-0.0193889 	0 -0.000345991 	-0.0192446 	0 -0.000337241 	-0.0191862 	0 -0.000318738 	-0.019268 	0 -0.000300367 	-0.0193584 	0 -0.00029838 	-0.0192303 	0 -0.000296392 	-0.0191022 	0 -0.000288916 	-0.0190349 	0 -0.000268837 	-0.0191106 	0 -0.00024888 	-0.0191957 	0 -0.000247457 	-0.019086 	0 -0.000246035 	-0.0189763 	0 -0.000239884 	-0.0189075 	0 -0.000218182 	-0.018976 	0 -0.000196587 	-0.0190546 	0 -0.000195667 	-0.0189655 	0 -0.000194748 	-0.0188764 	0 -0.000189863 	-0.0188132 	0 -0.000166502 	-0.0188732 	0 -0.000143225 	-0.0189443 	0 -0.000142723 	-0.0188779 	0 -0.000142221 	-0.0188114 	0 -0.000138424 	-0.0187604 	0 -0.000113378 	-0.0188107 	0 -8.83892e-05 	-0.0188731 	0 -8.81939e-05 	-0.0188314 	0 -8.79986e-05 	-0.0187897 	0 -8.4984e-05 	-0.0187565 	0 -5.82471e-05 	-0.0187959 	0 -3.15317e-05 	-0.0188482 	0 -3.15066e-05 	-0.0188332 	0 -3.14814e-05 	-0.0188182 	0 -2.88116e-05 	-0.018807 	0 -4.15805e-07 	-0.0188344 	0 2.80002e-05 	-0.0188754 	0 2.80201e-05 