# vtk DataFile Version 2.0
track0
ASCII
DATASET POLYDATA
POINTS 329 float
1.11022e-18 0.5 1.11022e-18
0.391304 0.5 1.11022e-18
0.391043 0.5 1.11022e-18
0.390783 0.5 1.11022e-18
0.390522 0.5 1.11022e-18
0.390261 0.5 1.11022e-18
0.39 0.5 1.11022e-18
0.388 0.5 1.11022e-18
0.386 0.5 1.11022e-18
0.384 0.5 1.11022e-18
0.382 0.5 1.11022e-18
0.38 0.5 1.11022e-18
0.378 0.5 1.11022e-18
0.376 0.5 1.11022e-18
0.374 0.5 1.11022e-18
0.372 0.5 1.11022e-18
0.37 0.5 1.11022e-18
0.368 0.5 1.11022e-18
0.366 0.5 1.11022e-18
0.364 0.5 1.11022e-18
0.362 0.5 1.11022e-18
0.36 0.5 1.11022e-18
0.358 0.5 1.11022e-18
0.356 0.5 1.11022e-18
0.354 0.5 1.11022e-18
0.352 0.5 1.11022e-18
0.35 0.5 1.11022e-18
0.348 0.5 1.11022e-18
0.346 0.5 1.11022e-18
0.344 0.5 1.11022e-18
0.342 0.5 1.11022e-18
0.34 0.5 1.11022e-18
0.338 0.5 1.11022e-18
0.336 0.5 1.11022e-18
0.334 0.5 1.11022e-18
0.332 0.5 1.11022e-18
0.33 0.5 1.11022e-18
0.328 0.5 1.11022e-18
0.326 0.5 1.11022e-18
0.324 0.5 1.11022e-18
0.322 0.5 1.11022e-18
0.32 0.5 1.11022e-18
0.318 0.5 1.11022e-18
0.316 0.5 1.11022e-18
0.314 0.5 1.11022e-18
0.312 0.5 1.11022e-18
0.31 0.5 1.11022e-18
0.308 0.5 1.11022e-18
0.306 0.5 1.11022e-18
0.304 0.5 1.11022e-18
0.302 0.5 1.11022e-18
0.3 0.5 1.11022e-18
0.298 0.5 1.11022e-18
0.296 0.5 1.11022e-18
0.294 0.5 1.11022e-18
0.292 0.5 1.11022e-18
0.29 0.5 1.11022e-18
0.288 0.5 1.11022e-18
0.286 0.5 1.11022e-18
0.284 0.5 1.11022e-18
0.282 0.5 1.11022e-18
0.28 0.5 1.11022e-18
0.278 0.5 1.11022e-18
0.276 0.5 1.11022e-18
0.274 0.5 1.11022e-18
0.272 0.5 1.11022e-18
0.27 0.5 1.11022e-18
0.268 0.5 1.11022e-18
0.266 0.5 1.11022e-18
0.264 0.5 1.11022e-18
0.262 0.5 1.11022e-18
0.26 0.5 1.11022e-18
0.258 0.5 1.11022e-18
0.256 0.5 1.11022e-18
0.254 0.5 1.11022e-18
0.252 0.5 1.11022e-18
0.25 0.5 1.11022e-18
0.248 0.5 1.11022e-18
0.246 0.5 1.11022e-18
0.244 0.5 1.11022e-18
0.242 0.5 1.11022e-18
0.24 0.5 1.11022e-18
0.238 0.5 1.11022e-18
0.236 0.5 1.11022e-18
0.234 0.5 1.11022e-18
0.232 0.5 1.11022e-18
0.23 0.5 1.11022e-18
0.228 0.5 1.11022e-18
0.226 0.5 1.11022e-18
0.224 0.5 1.11022e-18
0.222 0.5 1.11022e-18
0.22 0.5 1.11022e-18
0.218 0.5 1.11022e-18
0.216 0.5 1.11022e-18
0.214 0.5 1.11022e-18
0.212 0.5 1.11022e-18
0.21 0.5 1.11022e-18
0.208 0.5 1.11022e-18
0.206 0.5 1.11022e-18
0.204 0.5 1.11022e-18
0.202 0.5 1.11022e-18
0.2 0.5 1.11022e-18
0.198 0.5 1.11022e-18
0.196 0.5 1.11022e-18
0.194 0.5 1.11022e-18
0.192 0.5 1.11022e-18
0.19 0.5 1.11022e-18
0.188 0.5 1.11022e-18
0.186 0.5 1.11022e-18
0.184 0.5 1.11022e-18
0.182 0.5 1.11022e-18
0.18 0.5 1.11022e-18
0.178 0.5 1.11022e-18
0.176 0.5 1.11022e-18
0.174 0.5 1.11022e-18
0.172 0.5 1.11022e-18
0.17 0.5 1.11022e-18
0.168 0.5 1.11022e-18
0.166 0.5 1.11022e-18
0.164 0.5 1.11022e-18
0.162 0.5 1.11022e-18
0.16 0.5 1.11022e-18
0.158 0.5 1.11022e-18
0.156 0.5 1.11022e-18
0.154 0.5 1.11022e-18
0.152 0.5 1.11022e-18
0.15 0.5 1.11022e-18
0.148 0.5 1.11022e-18
0.146 0.5 1.11022e-18
0.144 0.5 1.11022e-18
0.142 0.5 1.11022e-18
0.14 0.5 1.11022e-18
0.138 0.5 1.11022e-18
0.136 0.5 1.11022e-18
0.134 0.5 1.11022e-18
0.132 0.5 1.11022e-18
0.13 0.5 1.11022e-18
0.128 0.5 1.11022e-18
0.126 0.5 1.11022e-18
0.124 0.5 1.11022e-18
0.122 0.5 1.11022e-18
0.12 0.5 1.11022e-18
0.118 0.5 1.11022e-18
0.116 0.5 1.11022e-18
0.114 0.5 1.11022e-18
0.112 0.5 1.11022e-18
0.11 0.5 1.11022e-18
0.108 0.5 1.11022e-18
0.106 0.5 1.11022e-18
0.104 0.5 1.11022e-18
0.102 0.5 1.11022e-18
0.1 0.5 1.11022e-18
0.098 0.5 1.11022e-18
0.096 0.5 1.11022e-18
0.094 0.5 1.11022e-18
0.092 0.5 1.11022e-18
0.09 0.5 1.11022e-18
0.088 0.5 1.11022e-18
0.086 0.5 1.11022e-18
0.084 0.5 1.11022e-18
0.082 0.5 1.11022e-18
0.08 0.5 1.11022e-18
0.078 0.5 1.11022e-18
0.076 0.5 1.11022e-18
0.074 0.5 1.11022e-18
0.072 0.5 1.11022e-18
0.07 0.5 1.11022e-18
0.068 0.5 1.11022e-18
0.066 0.5 1.11022e-18
0.064 0.5 1.11022e-18
0.062 0.5 1.11022e-18
0.06 0.5 1.11022e-18
0.058 0.5 1.11022e-18
0.056 0.5 1.11022e-18
0.054 0.5 1.11022e-18
0.052 0.5 1.11022e-18
0.05 0.5 1.11022e-18
0.048 0.5 1.11022e-18
0.046 0.5 1.11022e-18
0.044 0.5 1.11022e-18
0.042 0.5 1.11022e-18
0.04 0.5 1.11022e-18
0.038 0.5 1.11022e-18
0.036 0.5 1.11022e-18
0.034 0.5 1.11022e-18
0.032 0.5 1.11022e-18
0.03 0.5 1.11022e-18
0.028 0.5 1.11022e-18
0.026 0.5 1.11022e-18
0.024 0.5 1.11022e-18
0.022 0.5 1.11022e-18
0.02 0.5 1.11022e-18
0.018 0.5 1.11022e-18
0.016 0.5 1.11022e-18
0.014 0.5 1.11022e-18
0.012 0.5 1.11022e-18
0.01 0.5 1.11022e-18
0.008 0.5 1.11022e-18
0.006 0.5 1.11022e-18
0.004 0.5 1.11022e-18
0.002 0.5 1.11022e-18
0 0.5 1.11022e-18
1.11022e-18 0.5 1.11022e-18
0.391304 0.5 1.11022e-18
0.393043 0.5 1.11022e-18
0.394783 0.5 1.11022e-18
0.396522 0.5 1.11022e-18
0.398261 0.5 1.11022e-18
0.4 0.5 1.11022e-18
0.402 0.5 1.11022e-18
0.404 0.5 1.11022e-18
0.406 0.5 1.11022e-18
0.408 0.5 1.11022e-18
0.41 0.5 1.11022e-18
0.412 0.5 1.11022e-18
0.414 0.5 1.11022e-18
0.416 0.5 1.11022e-18
0.418 0.5 1.11022e-18
0.42 0.5 1.11022e-18
0.422 0.5 1.11022e-18
0.424 0.5 1.11022e-18
0.426 0.5 1.11022e-18
0.428 0.5 1.11022e-18
0.43 0.5 1.11022e-18
0.432 0.5 1.11022e-18
0.434 0.5 1.11022e-18
0.436 0.5 1.11022e-18
0.438 0.5 1.11022e-18
0.44 0.5 1.11022e-18
0.442 0.5 1.11022e-18
0.444 0.5 1.11022e-18
0.446 0.5 1.11022e-18
0.448 0.5 1.11022e-18
0.45 0.5 1.11022e-18
0.452 0.5 1.11022e-18
0.454 0.5 1.11022e-18
0.456 0.5 1.11022e-18
0.458 0.5 1.11022e-18
0.46 0.5 1.11022e-18
0.462 0.5 1.11022e-18
0.464 0.5 1.11022e-18
0.466 0.5 1.11022e-18
0.468 0.5 1.11022e-18
0.47 0.5 1.11022e-18
0.472 0.5 1.11022e-18
0.474 0.5 1.11022e-18
0.476 0.5 1.11022e-18
0.478 0.5 1.11022e-18
0.48 0.5 1.11022e-18
0.482 0.5 1.11022e-18
0.484 0.5 1.11022e-18
0.486 0.5 1.11022e-18
0.488 0.5 1.11022e-18
0.49 0.5 1.11022e-18
0.492 0.5 1.11022e-18
0.494 0.5 1.11022e-18
0.496 0.5 1.11022e-18
0.498 0.5 1.11022e-18
0.5 0.5 1.11022e-18
0.502 0.5 1.11022e-18
0.504 0.5 1.11022e-18
0.506 0.5 1.11022e-18
0.508 0.5 1.11022e-18
0.51 0.5 1.11022e-18
0.512 0.5 1.11022e-18
0.514 0.5 1.11022e-18
0.516 0.5 1.11022e-18
0.518 0.5 1.11022e-18
0.52 0.5 1.11022e-18
0.522 0.5 1.11022e-18
0.524 0.5 1.11022e-18
0.526 0.5 1.11022e-18
0.528 0.5 1.11022e-18
0.53 0.5 1.11022e-18
0.532 0.5 1.11022e-18
0.534 0.5 1.11022e-18
0.536 0.5 1.11022e-18
0.538 0.5 1.11022e-18
0.54 0.5 1.11022e-18
0.542 0.5 1.11022e-18
0.544 0.5 1.11022e-18
0.546 0.5 1.11022e-18
0.548 0.5 1.11022e-18
0.55 0.5 1.11022e-18
0.552 0.5 1.11022e-18
0.554 0.5 1.11022e-18
0.556 0.5 1.11022e-18
0.558 0.5 1.11022e-18
0.56 0.5 1.11022e-18
0.562 0.5 1.11022e-18
0.564 0.5 1.11022e-18
0.566 0.5 1.11022e-18
0.568 0.5 1.11022e-18
0.57 0.5 1.11022e-18
0.572 0.5 1.11022e-18
0.574 0.5 1.11022e-18
0.576 0.5 1.11022e-18
0.578 0.5 1.11022e-18
0.58 0.5 1.11022e-18
0.582 0.5 1.11022e-18
0.584 0.5 1.11022e-18
0.586 0.5 1.11022e-18
0.588 0.5 1.11022e-18
0.59 0.5 1.11022e-18
0.592 0.5 1.11022e-18
0.594 0.5 1.11022e-18
0.596 0.5 1.11022e-18
0.598 0.5 1.11022e-18
0.6 0.5 1.11022e-18
0.602 0.5 1.11022e-18
0.604 0.5 1.11022e-18
0.606 0.5 1.11022e-18
0.608 0.5 1.11022e-18
0.61 0.5 1.11022e-18
0.612 0.5 1.11022e-18
0.614 0.5 1.11022e-18
0.616 0.5 1.11022e-18
0.618 0.5 1.11022e-18
0.62 0.5 1.11022e-18
0.622 0.5 1.11022e-18
0.624 0.5 1.11022e-18
0.626 0.5 1.11022e-18
0.628 0.5 1.11022e-18
0.63 0.5 1.11022e-18
0.632 0.5 1.11022e-18
0.634 0.5 1.11022e-18
0.636 0.5 1.11022e-18
0.638 0.5 1.11022e-18
0.64 0.5 1.11022e-18
LINES 4 333
1 0
201 1 2 3 4 5 6 7 8 9 10 11 12 13 14 15 16 17 18 19 20 21 22 23 24 25 26 27 28 29 30 31 32 33 34 35 36 37 38 39 40 41 42 43 44 45 46 47 48 49 50 51 52 53 54 55 56 57 58 59 60 61 62 63 64 65 66 67 68 69 70 71 72 73 74 75 76 77 78 79 80 81 82 83 84 85 86 87 88 89 90 91 92 93 94 95 96 97 98 99 100 101 102 103 104 105 106 107 108 109 110 111 112 113 114 115 116 117 118 119 120 121 122 123 124 125 126 127 128 129 130 131 132 133 134 135 136 137 138 139 140 141 142 143 144 145 146 147 148 149 150 151 152 153 154 155 156 157 158 159 160 161 162 163 164 165 166 167 168 169 170 171 172 173 174 175 176 177 178 179 180 181 182 183 184 185 186 187 188 189 190 191 192 193 194 195 196 197 198 199 200 201
1 202
126 203 204 205 206 207 208 209 210 211 212 213 214 215 216 217 218 219 220 221 222 223 224 225 226 227 228 229 230 231 232 233 234 235 236 237 238 239 240 241 242 243 244 245 246 247 248 249 250 251 252 253 254 255 256 257 258 259 260 261 262 263 264 265 266 267 268 269 270 271 272 273 274 275 276 277 278 279 280 281 282 283 284 285 286 287 288 289 290 291 292 293 294 295 296 297 298 299 300 301 302 303 304 305 306 307 308 309 310 311 312 313 314 315 316 317 318 319 320 321 322 323 324 325 326 327 328
POINT_DATA 329
 FIELD attributes 1
U 3 329 float
1.11022e-20 	0 	0
0.0001 	0 	0 0.0001 	0 	0 0.0001 	0 	0 0.0001 	0 	0 0.0001 	0 	0 0.0001 	0 	0 0.0001 	0 	0 0.0001 	0 	0 0.0001 	0 	0 0.0001 	0 	0 0.0001 	0 	0 0.0001 	0 	0 0.0001 	0 	0 0.0001 	0 	0 0.0001 	0 	0 0.0001 	0 	0 0.0001 	0 	0 0.0001 	0 	0 0.0001 	0 	0 0.0001 	0 	0 0.0001 	0 	0 0.0001 	0 	0 0.0001 	0 	0 0.0001 	0 	0 0.0001 	0 	0 0.0001 	0 	0 0.0001 	0 	0 0.0001 	0 	0 0.0001 	0 	0 0.0001 	0 	0 0.0001 	0 	0 0.0001 	0 	0 0.0001 	0 	0 0.0001 	0 	0 0.0001 	0 	0 0.0001 	0 	0 0.0001 	0 	0 0.0001 	0 	0 0.0001 	0 	0 0.0001 	0 	0 0.0001 	0 	0 0.0001 	0 	0 0.0001 	0 	0 0.0001 	0 	0 0.0001 	0 	0 0.0001 	0 	0 0.0001 	0 	0 0.0001 	0 	0 0.0001 	0 	0 0.0001 	0 	0 0.0001 	0 	0 0.0001 	0 	0 0.0001 	0 	0 0.0001 	0 	0 0.0001 	0 	0 0.0001 	0 	0 0.0001 	0 	0 0.0001 	0 	0 0.0001 	0 	0 0.0001 	0 	0 0.0001 	0 	0 0.0001 	0 	0 0.0001 	0 	0 0.0001 	0 	0 0.0001 	0 	0 0.0001 	0 	0 0.0001 	0 	0 0.0001 	0 	0 0.0001 	0 	0 0.0001 	0 	0 0.0001 	0 	0 0.0001 	0 	0 0.0001 	0 	0 0.0001 	0 	0 0.0001 	0 	0 0.0001 	0 	0 0.0001 	0 	0 0.0001 	0 	0 0.0001 	0 	0 0.0001 	0 	0 0.0001 	0 	0 0.0001 	0 	0 0.0001 	0 	0 0.0001 	0 	0 0.0001 	0 	0 0.0001 	0 	0 0.0001 	0 	0 0.0001 	0 	0 0.0001 	0 	0 0.0001 	0 	0 0.0001 	0 	0 0.0001 	0 	0 0.0001 	0 	0 0.0001 	0 	0 0.0001 	0 	0 0.0001 	0 	0 0.0001 	0 	0 0.0001 	0 	0 0.0001 	0 	0 0.0001 	0 	0 0.0001 	0 	0 0.0001 	0 	0 0.0001 	0 	0 0.0001 	0 	0 0.0001 	0 	0 0.0001 	0 	0 0.0001 	0 	0 0.0001 	0 	0 0.0001 	0 	0 0.0001 	0 	0 0.0001 	0 	0 0.0001 	0 	0 0.0001 	0 	0 0.0001 	0 	0 0.0001 	0 	0 0.0001 	0 	0 0.0001 	0 	0 0.0001 	0 	0 0.0001 	0 	0 0.0001 	0 	0 0.0001 	0 	0 0.0001 	0 	0 0.0001 	0 	0 0.0001 	0 	0 0.0001 	0 	0 0.0001 	0 	0 0.0001 	0 	0 0.0001 	0 	0 0.0001 	0 	0 0.0001 	0 	0 0.0001 	0 	0 0.0001 	0 	0 0.0001 	0 	0 0.0001 	0 	0 0.0001 	0 	0 0.0001 	0 	0 0.0001 	0 	0 0.0001 	0 	0 0.0001 	0 	0 0.0001 	0 	0 0.0001 	0 	0 0.0001 	0 	0 0.0001 	0 	0 0.0001 	0 	0 0.0001 	0 	0 0.0001 	0 	0 0.0001 	0 	0 0.0001 	0 	0 0.0001 	0 	0 0.0001 	0 	0 0.0001 	0 	0 0.0001 	0 	0 0.0001 	0 	0 0.0001 	0 	0 0.0001 	0 	0 0.0001 	0 	0 0.0001 	0 	0 0.0001 	0 	0 0.0001 	0 	0 0.0001 	0 	0 0.0001 	0 	0 0.0001 	0 	0 0.0001 	0 	0 0.0001 	0 	0 0.0001 	0 	0 0.0001 	0 	0 0.0001 	0 	0 0.0001 	0 	0 0.0001 	0 	0 0.0001 	0 	0 0.0001 	0 	0 0.0001 	0 	0 0.0001 	0 	0 0.0001 	0 	0 0.0001 	0 	0 0.0001 	0 	0 0.0001 	0 	0 0.0001 	0 	0 0.0001 	0 	0 0.0001 	0 	0 0.0001 	0 	0 0.0001 	0 	0 0.0001 	0 	0 0.0001 	0 	0 0.0001 	0 	0 0.0001 	0 	0 0.0001 	0 	0 0.0001 	0 	0 0.0001 	0 	0 0.0001 	0 	0 0.0001 	0 	0 0.0001 	0 	0 0.0001 	0 	0 0.0001 	0 	0 0.0001 	0 	0 0.0001 	0 	0 8e-05 	0 	0 6e-05 	0 	0 4e-05 	0 	0 2e-05 	0 	0 0 	0 	0
1.11022e-20 	0 	0
0.0001 	0 	0 0.0001 	0 	0 0.0001 	0 	0 0.0001 	0 	0 0.0001 	0 	0 0.0001 	0 	0 0.0001 	0 	0 0.0001 	0 	0 0.0001 	0 	0 0.0001 	0 	0 0.0001 	0 	0 0.0001 	0 	0 0.0001 	0 	0 0.0001 	0 	0 0.0001 	0 	0 0.0001 	0 	0 0.0001 	0 	0 0.0001 	0 	0 0.0001 	0 	0 0.0001 	0 	0 0.0001 	0 	0 0.0001 	0 	0 0.0001 	0 	0 0.0001 	0 	0 0.0001 	0 	0 0.0001 	0 	0 0.0001 	0 	0 0.0001 	0 	0 0.0001 	0 	0 0.0001 	0 	0 0.0001 	0 	0 0.0001 	0 	0 0.0001 	0 	0 0.0001 	0 	0 0.0001 	0 	0 0.0001 	0 	0 0.0001 	0 	0 0.0001 	0 	0 0.0001 	0 	0 0.0001 	0 	0 0.0001 	0 	0 0.0001 	0 	0 0.0001 	0 	0 0.0001 	0 	0 0.0001 	0 	0 0.0001 	0 	0 0.0001 	0 	0 0.0001 	0 	0 0.0001 	0 	0 0.0001 	0 	0 0.0001 	0 	0 0.0001 	0 	0 0.0001 	0 	0 0.0001 	0 	0 0.0001 	0 	0 0.0001 	0 	0 0.0001 	0 	0 0.0001 	0 	0 0.0001 	0 	0 0.0001 	0 	0 0.0001 	0 	0 0.0001 	0 	0 0.0001 	0 	0 0.0001 	0 	0 0.0001 	0 	0 0.0001 	0 	0 0.0001 	0 	0 0.0001 	0 	0 0.0001 	0 	0 0.0001 	0 	0 0.0001 	0 	0 0.0001 	0 	0 0.0001 	0 	0 0.0001 	0 	0 0.0001 	0 	0 0.0001 	0 	0 0.0001 	0 	0 0.0001 	0 	0 0.0001 	0 	0 0.0001 	0 	0 0.0001 	0 	0 0.0001 	0 	0 0.0001 	0 	0 0.0001 	0 	0 0.0001 	0 	0 0.0001 	0 	0 0.0001 	0 	0 0.0001 	0 	0 0.0001 	0 	0 0.0001 	0 	0 0.0001 	0 	0 0.0001 	0 	0 0.0001 	0 	0 0.0001 	0 	0 0.0001 	0 	0 0.0001 	0 	0 0.0001 	0 	0 0.0001 	0 	0 0.0001 	0 	0 0.0001 	0 	0 0.0001 	0 	0 0.0001 	0 	0 0.0001 	0 	0 0.0001 	0 	0 0.0001 	0 	0 0.0001 	0 	0 0.0001 	0 	0 0.0001 	0 	0 0.0001 	0 	0 0.0001 	0 	0 0.0001 	0 	0 0.0001 	0 	0 0.0001 	0 	0 0.0001 	0 	0 0.0001 	0 	0 0.0001 	0 	0 0.0001 	0 	0 0.0001 	0 	0 0.0001 	0 	0 0.0001 	0 	0 0.0001 	0 	0 8e-05 	0 	0 6e-05 	0 	0 4e-05 	0 	0 2e-05 	0 	0 0 	0 	0
